<?xml version="1.0"?>
<VTKFile type="UnstructuredGrid"  version="0.1"  >
<UnstructuredGrid>
<Piece  NumberOfPoints="7863" NumberOfCells="15264">
<Points>
<DataArray  type="Float64"  NumberOfComponents="3"  format="ascii">0 0 0  0 1 0  1 1 0  1 0 0  0.25 0.15 0  0.25 0.4 0  0.5 0.4 0  0.5 0.15 0  0.6 0.6 0  0.6 0.85 0  0.75 0.85 0  0.75 0.6 0  0 0.9499999999997918 0  0 0.8999999999995836 0  0 0.8499999999996529 0  0 0.7999999999999998 0  0 0.7500000000003466 0  0 0.7000000000006934 0  0 0.6500000000010401 0  0 0.6000000000013869 0  0 0.5500000000017335 0  0 0.5000000000020587 0  0 0.4500000000018723 0  0 0.4000000000016644 0  0 0.3500000000014564 0  0 0.3000000000012483 0  0 0.2500000000010403 0  0 0.2000000000008322 0  0 0.1500000000006241 0  0 0.100000000000416 0  0 0.05000000000020799 0  0.04999999999989965 0 0  0.09999999999981467 0 0  0.1499999999997036 0 0  0.1999999999995579 0 0  0.2499999999994121 0 0  0.2999999999992664 0 0  0.3499999999991206 0 0  0.3999999999989749 0 0  0.4499999999988292 0 0  0.4999999999986943 0 0  0.5499999999988151 0 0  0.5999999999989468 0 0  0.6499999999990784 0 0  0.69999999999921 0 0  0.7499999999993417 0 0  0.7999999999994734 0 0  0.8499999999996051 0 0  0.8999999999997368 0 0  0.9499999999998684 0 0  1 0.04999999999989965 0  1 0.09999999999981467 0  1 0.1499999999997036 0  1 0.1999999999995579 0  1 0.2499999999994121 0  1 0.2999999999992664 0  1 0.3499999999991206 0  1 0.3999999999989749 0  1 0.4499999999988292 0  1 0.4999999999986943 0  1 0.5499999999988151 0  1 0.5999999999989468 0  1 0.6499999999990784 0  1 0.69999999999921 0  1 0.7499999999993417 0  1 0.7999999999994734 0  1 0.8499999999996051 0  1 0.8999999999997368 0  1 0.9499999999998684 0  0.9499999999997918 1 0  0.8999999999995836 1 0  0.8499999999996529 1 0  0.7999999999999998 1 0  0.7500000000003466 1 0  0.7000000000006934 1 0  0.6500000000010401 1 0  0.6000000000013869 1 0  0.5500000000017335 1 0  0.5000000000020587 1 0  0.4500000000018723 1 0  0.4000000000016644 1 0  0.3500000000014564 1 0  0.3000000000012483 1 0  0.2500000000010403 1 0  0.2000000000008322 1 0  0.1500000000006241 1 0  0.100000000000416 1 0  0.05000000000020799 1 0  0.25 0.3500000000002234 0  0.25 0.3000000000004466 0  0.25 0.2500000000006611 0  0.25 0.2000000000003316 0  0.2999999999999999 0.15 0  0.3499999999999999 0.15 0  0.3999999999999999 0.15 0  0.45 0.15 0  0.5 0.2000000000000022 0  0.5 0.2500000000000046 0  0.5 0.3000000000000067 0  0.5 0.3500000000000087 0  0.4500000000000001 0.4 0  0.4000000000000001 0.4 0  0.3500000000000001 0.4 0  0.3 0.4 0  0.6 0.6499999999999999 0  0.6 0.6999999999999998 0  0.6 0.7499999999999999 0  0.6 0.7999999999999999 0  0.75 0.8 0  0.75 0.7500000000000001 0  0.75 0.7000000000000001 0  0.75 0.65 0  0.7000000000000145 0.6 0  0.649999999999899 0.6 0  0.6499999999996818 0.85 0  0.6999999999997106 0.85 0  0.2987828851411449 0.699325350601735 0  0.7568105424598444 0.2773422776226307 0  0.1795454545455548 0.565909090909074 0  0.8224999999997471 0.4374999999996759 0  0.4210672245123 0.8298112703689309 0  0.1704342645355456 0.817589228320629 0  0.4288291996927651 0.5807253322680467 0  0.6700168933784714 0.4454283174013861 0  0.8465566460363076 0.1536642418117631 0  0.6487495650826139 0.1583009537413474 0  0.1302432088118011 0.6870436331969506 0  0.4678571428571685 0.6999999999999645 0  0.3001247914658854 0.8712026118102825 0  0.3037919960474855 0.5294342885375104 0  0.130623183832229 0.4401092867706953 0  0.8659552483879646 0.3224251422433174 0  0.8736312978505528 0.5612537349962974 0  0.6245633418427496 0.3030766659003465 0  0.1250000000000379 0.2750000000005539 0  0.8734358317010626 0.8762010003539712 0  0.1254835060363831 0.1258252413885224 0  0.8749999999999343 0.7250000000000005 0  0.5181687217833718 0.5314910246240141 0  0.7500000000000194 0.1068693693694355 0  0.5185460717145034 0.8908201301560481 0  0.1043949820060815 0.9055901675413394 0  0.7472304391142466 0.4937115169957552 0  0.7437057827977005 0.3796800519519853 0  0.5837666239123878 0.0953941305957148 0  0.902362942345899 0.2218145421277327 0  0.1069592086353165 0.6081316226431639 0  0.5943281866118556 0.2221187317759835 0  0.09231256724200733 0.7788120293054371 0  0.2599118360316645 0.613680451156976 0  0.386610176029564 0.6631887582313238 0  0.2537946126497011 0.7917216350769677 0  0.9088286731471231 0.4704266021303271 0  0.5063995803351647 0.6198623457584774 0  0.3860058725664629 0.914148551469585 0  0.5069733898137954 0.7690591741519245 0  0.2189083152479363 0.9142871916137685 0  0.09240943628007152 0.353587386157095 0  0.3923666487137664 0.4973261685045393 0  0.9117702211709445 0.6463336145912728 0  0.2237945603996098 0.4867857348645567 0  0.9161970975027582 0.08252283236527229 0  0.3461519581374356 0.7752338663700789 0  0.6110313179874225 0.5139303735626758 0  0.08254453868152074 0.5295949336450964 0  0.5783651695896583 0.387014424669225 0  0.7680988053275425 0.1909346846843861 0  0.9202288100287571 0.8014462386955867 0  0.08317821648800833 0.2045345244679453 0  0.6743674448775834 0.2381773292297286 0  0.8014729691714902 0.9151682085422 0  0.1982142857142988 0.08392857142857235 0  0.9156947390731955 0.3830592165702195 0  0.2099925163896727 0.7117346125224077 0  0.8288873197852951 0.7991354001759553 0  0.1710420590992359 0.2009730661079498 0  0.8302601404977216 0.6362505489697606 0  0.8278972189280196 0.2432708264037497 0  0.1724373447570453 0.3750000000001119 0  0.8263815004216721 0.07675344797416643 0  0.6734552612001731 0.07775097080953899 0  0.6322765317037635 0.9278922409848336 0  0.3328795603068665 0.07550965653377333 0  0.4218141641894588 0.07552083333321569 0  0.7202413378918148 0.9252992098071467 0  0.3398398570642138 0.5956195883200471 0  0.1876245270259333 0.6393374142670434 0  0.5053993339633923 0.07647011170888637 0  0.0718750000000897 0.07187499999995482 0  0.9281249999999797 0.9281249999999464 0  0.4615331046556409 0.4767930683020147 0  0.8132809042322462 0.3596726603183649 0  0.8134265276406807 0.5108303348297808 0  0.4201515737436131 0.7514965833054841 0  0.9273040324515954 0.1585949917491647 0  0.06708721766401626 0.6750163115727243 0  0.56422475897686 0.4552131930394481 0  0.6791346043894576 0.5327473050102175 0  0.697255269395278 0.3214473484424947 0  0.2802981881263434 0.9339285714286927 0  0.5339285714285894 0.6802981881261965 0  0.1655838508805648 0.7568246324058057 0  0.07055580426794442 0.4304123740962421 0  0.3226088857382223 0.4646105576694787 0  0.5680970217443936 0.1590416415060358 0  0.4428489297902234 0.9319457679008186 0  0.9477157065683794 0.5858496809090185 0  0.9359768099749814 0.2904579204473128 0  0.1742846135096847 0.3003953810640202 0  0.06918270446438632 0.8409433163409716 0  0.8252358436657874 0.6976195482341206 0  0.5635633234700967 0.284788731469481 0  0.5521945854607904 0.9257613588772547 0  0.3635427058143873 0.8407659882482055 0  0.4499814782289108 0.6338364401188512 0  0.2390953482890149 0.8431241519968201 0  0.1517067680066363 0.9343448395931244 0  0.06539387153795677 0.3019693576901929 0  0.2575632692678596 0.06394502601111231 0  0.6555411638130636 0.3716910457745546 0  0.1608726846099766 0.5049389228359271 0  0.934949728583427 0.6997486429173009 0  0.2433845767894122 0.5499237975678901 0  0.939237790491481 0.8554484180187727 0  0.0630223880597205 0.1401119402987738 0  0.1348958333334102 0.06197916666672756 0  0.865104166666832 0.9380208333335958 0  0.7604230740984012 0.4373799400890658 0  0.5372647219903939 0.8402823937523813 0  0.1923510154511563 0.1420055354945893 0  0.8075445196362099 0.857996515152053 0  0.1885591087578553 0.4337380820533954 0  0.7105225609509752 0.1526657632181078 0  0.3666090240151971 0.7062960373879834 0  0.7966936723524515 0.3163062291281787 0  0.5508714508660905 0.570011516337836 0  0.4721626247170084 0.554486293857005 0  0.8002707048946301 0.5730607189697422 0  0.06641773621617075 0.9351618371252797 0  0.3665814154358935 0.5517819541861106 0  0.05442204514635005 0.7231523959702606 0  0.6284828997490257 0.05004553457671893 0  0.9398712002144101 0.5109326544100544 0  0.5433787542275291 0.7375061851781469 0  0.3375061851783711 0.9433787542277096 0  0.7215297270911555 0.05410988042852424 0  0.4797837765982246 0.8425479205787176 0  0.04271365523339227 0.5671101206092209 0  0.8714625424823598 0.3953934577117953 0  0.1490428061304692 0.875151828016147 0  0.2781199925553454 0.4510243744904079 0  0.5565677762207972 0.3450127136714147 0  0.1940357533673813 0.2535689772727561 0  0.3766403934953488 0.04740981637292114 0  0.2545866346220484 0.6725938042819365 0  0.3074605043080991 0.8017072464925095 0  0.8056636005117194 0.7469721857454302 0  0.1269450100636947 0.56224828215199 0  0.05350185589295817 0.249017632611271 0  0.674777132742694 0.8963085370316726 0  0.5117683592953793 0.4496907486941994 0  0.1169833904185793 0.8254360225452316 0  0.04504201214567945 0.4768561077888308 0  0.3055599085954928 0.6382433889748717 0  0.9450727948239286 0.7538737512009489 0  0.4306417842714623 0.8796919592677241 0  0.7923856483923215 0.141724914569402 0  0.8728297214303689 0.04978308383419468 0  0.9486377781753648 0.4273242585722439 0  0.437541018947418 0.5220595462426839 0  0.9484027151197005 0.346539625994936 0  0.7281038251562784 0.2284601524070051 0  0.8668606734410613 0.6709737204112667 0  0.690214514677936 0.4804244848868111 0  0.8493847380621981 0.4812225068388546 0  0.1333737946122648 0.326539344567937 0  0.7219350493285639 0.5495541898924469 0  0.6750000000008667 0.9530034763360794 0  0.6303201059992649 0.106643697324949 0  0.7119144016103087 0.4146430422909549 0  0.3761225040737161 0.1044665480092788 0  0.1419061815543131 0.6445935072656427 0  0.5010710576848406 0.9417334264593 0  0.8586198319213173 0.207759071572462 0  0.9472598698250957 0.05274013017491718 0  0.2988553637576897 0.7535345997678686 0  0.7805552894816058 0.05315972730291021 0  0.4120655818059855 0.7045889958912197 0  0.7495113277877659 0.3294098108501303 0  0.6308381164613092 0.2525569635330791 0  0.05405789668501901 0.6246
[...]
<PointData  Scalars="f_771"> 
<DataArray  type="Float64"  Name="f_771"  format="ascii">-7.1929420906191345e-07  1.7009272390442701e-07  -1.2217790393562515e+01  1.7692654823965037e-03  -1.3348005708686668e-04  -8.7347342626523733e-06  2.1248339771116290e-03  -2.4667001787760590e-02  -1.7471956505026004e-02  6.3476600892753243e+00  2.7964624975189054e+02  3.2609092024976938e+01  8.0804140825081948e-07  1.6117910850285371e-06  2.2159724969179840e-06  1.6769075477129131e-06  1.7475998915067177e-06  1.2846671826120244e-06  9.0370068036200902e-07  6.4714816565339765e-07  3.9989347620691011e-07  2.4449070408872591e-07  1.3897110986075282e-07  6.7156581055348652e-08  2.3280283591838313e-08  -3.6142213489109691e-09  -2.0460539528100167e-08  -3.0667834973544902e-08  -4.0119916098329075e-08  -4.8798502701140303e-08  -5.5145714158011149e-08  -5.0081691167083262e-06  -2.5775561397162573e-05  -3.7145513450549348e-05  -2.5786623018999401e-05  -1.8546281961272346e-05  -2.4317188428651532e-05  -4.6968665665039056e-05  -9.4864292231342361e-05  -1.5626841617526061e-04  -1.9769060605459893e-04  -1.6433164867372328e-04  -9.6547247874165335e-05  -5.6604330468213824e-05  -5.5100011158633361e-05  2.8196589655357293e-04  1.3775527796673661e-04  7.3164367455381019e-04  1.6805897798838759e-03  9.1162128532938083e-05  1.6801818555754206e-02  2.0673011531753455e-02  -1.5763777726149175e+00  -4.0040972489110827e+00  -1.8100957759603800e+00  -5.9929730426483312e+00  9.7288095884906181e+00  1.8861415892641826e+01  6.5940204812528886e+00  2.9777553673789519e+00  -7.0759620861569006e-02  -1.0052856568031149e+01  -7.8192988577887697e+00  -7.1576831248211139e+00  -9.6386784004672652e+00  -5.2107106020314848e+00  -3.4761561657591495e+00  -2.3228537916259273e+00  -1.1706812416752490e+00  -2.1606448801011176e+01  -1.9167135454627346e+01  -9.7507035943757376e+00  -3.2978247307252961e+00  -1.2704079289468768e+00  -4.9372273675651174e-01  -2.1796092631926306e-01  -6.8847083452776084e-02  -1.6667301715116694e-02  -1.4208927262257948e-03  -1.6146810560172450e-04  -8.5976265511193680e-06  -1.1738572340771623e-06  -3.6616022411110569e-07  -1.4990953105214937e-07  -8.9557777214328557e-08  -3.1797938918435246e-09  -1.9880575395170218e-07  -1.4620140902359831e-07  -1.2371215234836504e-05  -3.6730356151449867e-05  -1.1161468407214158e-04  -2.3765509521334532e-04  -7.0415899983525493e-04  -2.0307446764865856e-03  -5.2503901770019979e-03  -1.2106690537896087e-02  -9.1219206174971021e-02  6.9903085959439420e-02  7.8584333169663567e-02  2.2897771852713623e-02  -6.1835978952104132e-07  -9.0882994296926262e-11  -3.8770605732947420e-09  -3.2779100156861738e-07  1.8137731636033338e-09  -9.8711452857351673e-10  3.3203911565244224e-07  3.8419780646488902e-03  3.6789730273894314e+01  9.4755674682296380e+00  6.6654928849403206e+00  1.1652349454313665e+01  4.4216418941687849e+01  5.6291985670091971e-01  1.2837539154933514e+01  5.3331045643220278e+01  -7.0233582885788393e-10  2.9821356861833623e+05  2.0821339430089515e-11  9.6621353903855506e+03  4.1047439221089660e-01  1.5122204796031810e-09  -1.0329583912490500e-08  1.6136875752786129e+04  4.8787668907520740e+04  2.7617860438252451e-01  -5.1436111061719572e-12  3.8971056710041266e-10  2.7088271176664038e-02  -5.5713042076122009e-07  -1.4510216948451995e-08  1.2851235708892675e+04  7.5761723993487794e+03  1.1264650202310740e+04  -1.9261711584387863e-07  1.3345299851339576e+03  -5.7392814886845341e-07  3.2418744776446215e+03  -9.5012728682456711e-06  -5.9644669901897129e-01  1.1126682563507961e+01  1.8487595359610915e-04  1.7170337845284550e+04  1.2669195035837879e+05  -2.1919580653488773e-03  1.2131586885579741e+05  -8.1898561298497387e-12  8.6100349889550323e+00  -1.0900718636945610e-09  -2.1007239681265301e-09  -2.2438738988142730e-09  7.3555201491526695e-08  1.1553186878995368e+04  -6.4924154663556499e-09  5.9333922652883182e-02  3.0517048567380552e-03  4.1229040400038329e-03  -2.7063167837638491e-08  -1.7921854295737489e-07  3.6684656917909629e+03  -3.6189355695678004e-07  1.9877179929045617e+01  -1.2976388922747998e-07  1.2562592687433575e+02  -7.2243940762476658e-10  2.0809320385316207e+02  8.4070415894582169e+04  5.1570528947189450e+03  -1.3942723955933362e-07  2.6475389191307473e+04  1.1832265075853157e+02  -2.1483059116036772e-06  3.1017978755271251e+04  -1.1266102891257045e-11  2.2896790446098030e+03  -2.4333738644430185e-06  3.5651710328881188e+02  1.7602346639694861e+05  -5.5866835226589183e-06  7.7655925216866206e-02  -1.7009051272770265e-03  3.1443467915913612e+01  -3.7288429999329613e-05  -1.8160028763736371e-04  6.1756919126869171e+01  -3.7399188664060003e-08  2.0186888035031199e-12  -6.1679300166094539e-04  -2.3377594829718909e-07  1.5810759960709836e+02  9.9315794417367403e-09  8.1848344815481923e+03  2.8470026862678758e+04  -1.5230180681338755e-07  1.3959365732491182e+04  -1.5856408236477253e-08  3.2107151469278765e+00  6.6120011181436075e+02  2.2032236851271536e+05  1.9771524399494083e-03  1.8016480929777440e-10  8.2232473986916035e-11  -4.2494581748962572e-09  -3.4298732739944073e-06  -1.7981711673941032e-02  4.9120512449450003e-02  1.0945076578448088e+03  2.6320060475882939e+04  -6.7508665870670427e-06  1.8230008381096760e-07  6.6637645095125652e+02  3.4189402519319523e+00  7.0977000833717847e+00  7.9429509587174582e-02  -2.6945431888073958e-10  2.6036513217077871e-05  7.5456265050635144e-04  -2.8925824062602756e-08  -1.0768003220695176e-05  5.2686429362824303e+04  -1.7156720904552121e-09  1.4216013178463947e+03  -6.3938138404863297e-09  1.2598013071258110e+03  -1.3457544472121573e-07  -6.2226437292595227e-07  3.9774731668253459e+01  6.7311900072143399e+04  8.6572370958870035e+00  -2.9032248191594361e-06  9.8930697087396572e+02  -1.3808209245031764e-06  4.8908035005941830e+00  -3.1539673420808272e-10  4.6284386794798498e+04  -3.2887460233888569e-05  5.8086440111338717e-09  5.4308495334343866e+02  1.8659500802693365e-04  -2.5306839300999284e-07  3.0262190526796932e-07  -5.4443159487463030e-04  3.8043409619319505e+03  1.0611277166900610e-07  5.4991278572294737e-04  3.3670396303026001e-03  3.7013833306965926e+00  2.9842222119443557e-07  7.1888913466310050e+03  2.6332499214700260e-05  -1.0259471556288596e-05  6.3144991943070048e+00  -1.8282258302881182e-05  -6.3493091209787183e-05  -4.1712918914796250e-10  -1.3700986623808337e-06  6.9778514722027421e+02  -8.3902172899281705e-13  -4.1232706084634793e-08  1.5697576641069602e+02  1.9105084684145355e-04  -1.0471878111018959e-08  5.7905836087841125e-08  -2.4286319262748569e-09  1.0483082286340577e+03  1.0643013424887393e+00  2.1281884429774577e+03  4.1590567891137365e-03  4.5888596224400399e+03  -7.8676619035851706e-09  6.2212919521567537e+03  1.5042226941762184e+05  3.1463716982237756e+03  6.7771171298514901e+03  6.5280386388169400e+03  -2.0800038700082552e-07  2.9158146042865621e+02  2.0654060642662264e+00  2.3586672444390264e-03  8.8998330986518602e+04  -1.9445803282077927e-04  9.8445680418945531e-14  1.5677752638313897e-01  2.1291378498369540e+05  -1.5480220752437049e-01  -5.1593800607085922e-09  -5.3262369689888768e-03  -1.4724295704433624e-11  1.8494137409781411e+05  3.4803286316221461e+03  1.6060177813749191e-07  2.7745467840738151e-05  -3.1829169291996198e-09  -8.6411979873741084e-07  -5.1078440100879607e-04  -1.9792327596514289e-09  9.4044248583829784e+01  -3.1182767424311378e-08  7.5569126496311903e+04  1.0124528956463423e+00  -6.8874146716990598e-09  2.9735564855696214e+01  2.6894257444383597e+03  1.3480564512654566e-04  5.4860329568002692e+02  1.6753683532912049e+02  -4.0487560692433827e-08  1.6647520080113156e+03  1.4618029252660384e+02  -5.1593860277950585e-07  4.7014007547467718e+03  -2.2594268757128275e-07  -1.0147270526771760e-06  1.5631142517803208e+04  -1.8784570226006069e-04  -6.5283812075009611e-04  4.1598810603441666e-01  -3.0371078386588848e-03  -9.1622968539949522e-09  -2.4051836559584812e-11  -3.6515267337723620e-10  3.9571351787238482e-06  8.4640958284684995e+00  5.0345237568678604e+03  -3.1900357081617132e-07  -2.8157722344534582e-03  3.2096960504203371e+05  1.4675240182699792e-01  -1.6447303565843165e-07  -1.9767843683499164e-05  6.5679738460783968e-02  9.1912418509990962e-02  2.1855760202501749e+05  5.5255828045684657e+03  -1.6521887357276777e+00  -6.8686746120051269e-06  -1.9402198305926946e-10  1.6842009876238628e-01  1.9834030593463240e+05  -1.1703474446138539e-02  -2.0637979714756000e-11  1.0692514870482495e-02  2.9646237847706998e+03  2.7816198865362571e+02  -1.8552309538459277e-02  6.9807003594141387e-04  -1.3064653464044931e-06  2.5451478485995847e+02  -6.2338617717918193e-08  2.7787541953104843e+04  -1.3274003134273402e-06  1.8512565151868178e+03  1.8104997406754883e+04  2.7316104518224308e-07  -6.4416728601344003e-06  3.7398917551783547e+04  -9.4365377391087270e-10  -5.1713154431371712e-09  -1.6133668060332182e-05  1.2857597412979071e-12  7.5524654642151915e-08  -1.2998323985247126e-09  -1.6568036241467902e-02  1.1738726006107929e+03  -4.9693637803225866e-13  6.9936514544363854e+02  -2.0485966231371129e-05  1.1126892926582519e+04  7.3439317123932697e+03  1.7059699869912995e-04  8.1884503209338703e+01  -5.2750425403486249e-05  1.0340470155408670e+05  1.5914422950185076e+05  1.4778660870539517e-01  2.0022685706693133e+04  1.3930391181693892e+03  5.4046683910909472e-10  3.7902163723418619e-10  2.2440719242835421e+03  -1.5508894437607511e-08  -2.7380992250884961e-05  3.3377868096134472e+02  -1.0612475459551384e-06  7.6370893675226107e+04  -1.0740376049507023e-07  1.8382123288018670e+02  -1.7154259116338907e-07  1.7862408720434406e+01  -1.8970010299575388e-03  -3.7890141491352737e-04  3.0647269943362687e+02  1.2670324784834544e-05  -3.1133614226742542e-05  1.0541328769680687e+04  -3.5905514599527146e+00  -1.8179204096887495e-08  8.3971189956993811e+01  -1.0637863409935495e-03  -8.8184680969380082e-05  -6.6823681641510757e-01  9.3089660097546272e+01  1.6281540245933076e+02  -3.6861538655071538e-07  6.0395498876910523e+00  -1.2745246334139643e-04  -1.3341432519325080e-05  9.0507204333347290e+03  3.9923529206183872e-01  3.7253932294829345e-02  -7.3796720183538505e-11  -1.4323182020300352e-02  3.1748360336350102e+04  2.9197458923059276e+02  -2.6418968310900176e-07  1.0690262076584253e-01  -2.9369228128822974e-07  9.5631371922322046e+02  -9.3389754249090552e-11  5.6893225641318414e-05  2.5594993319699577e+04  5.0387907039972305e+02  -5.2579609764329055e-10  5.7744602912667106e+04  -7.8984468073013421e-09  -4.4320935718395614e-12  1.1856751481784806e+02  3.7693994153266499e+02  3.8479392583691811e+03  -9.0348678916307101e-01  6.0659207380719761e+02  -3.7773056792982236e-05  5.5962039411062330e-04  4.8257089054769828e-04  5.1214713068330411e+03  9.0911648153519243e-09  7.1700000177401500e+02  1.5244824572655947e-05  -4.8580721530285334e-09  -2.2829827274864137e-04  -5.9075599337709034e-02  8.5081398511605130e+03  -1.7556405151495663e-01  1.4586909049900214e+02  -2.7711844862329588e-08  -5.9923360536074684e-05  2.2011584619133049e+00  -9.8992985364480120e-08  2.0049399975573961e+03  3.7699368045345784e+02  -1.6527935740978944e-06  7.9290950495516023e+04  -3.8483872595038800e-04  2.2864430535478092e-01  5.5786025559124013e+04  1.0618827731628672e+02  -4.4898330218827415e-04  -8.2733415093052916e-05  1.2484417587801616e+02  3.8480682928515687e-07  4.1914146779673622e+01  2.9681508156205851e+04  2.3841625491686002e-06  1.0714832059978055e+04  1.5258452963490734e-10  -1.3991423514006996e-05  2.0013209694745862e-01  1.3984945020170707e-11  2.5983872202844555e+03  2.1467224371826719e+00  -7.7247275070590689e-08  2.4802088345611082e-12  9.7673130228661762e+00  -8.1748869291130910e-11  -4.0996454307526711e-08  3.5542544168710722e-05  -8.4362435376742670e-09  5.5178577094989370e+04  3.8947212763486864e+03  -2.4168155199631853e-07  -8.4427103515929590e-09  5.1638250021225440e+03  -3.2853327085171635e-07  8.7504566937529739e+02  -6.7473346448143896e-11  4.5332128943391690e-02  5.2135577320654108e-08  -1.0104415347077134e-06  4.7238998424667307e+02  1.7544437317620089e-03  1.5663234896790033e+02  2.2251300724230486e-02  1.6405981929648595e+02  3.6614722834621698e+03  -1.4908382559668328e-03  -1.5541295813431177e-01  5.8129546214564625e-05  1.5569660303697051e-05  4.0634529428619143e-01  1.5999470055948424e-10  5.0192966340853115e-03  -1.1336648008341666e-09  9.3113618424820652e+03  7.1090115789134420e-02  2.2025824255294053e-07  9.5419518510153822e-01  2.9620704879308544e+05  2.1220277865776505e+04  -3.2251836047059180e-06  -1.6578955420079096e-09  -1.9044038488966566e-09  2.1281955196296494e+03  -1.0642175955763586e-06  1.3987761445771571e+05  -3.7804067663551023e-09  -7.8100423865005799e-08  -2.8072791699998254e-07  -3.0163747590537378e-11  4.0757641028123174e+02  -1.4340053685199059e-07  8.0294568535102342e+04  -1.7383800369542354e-08  -1.5880311483568554e-03  1.9028657853485713e+03  6.3866918047738631e-04  1.2543544356072035e-02  1.3066725493970554e-09  -6.1059036563124272e-05  -4.1597219267895959e-06  3.5184995595987230e+03  5.9956254875191859e-06  -3.3847359689777789e-03  2.1480421912140228e+03  -2.9623163656336353e-03  -9.4043764381111962e-08  -1.5785908905042684e-06  -1.4603506500236758e-07  5.0351124988561219e-07  -2.8241001221046302e-08  4.8639464688862308e-06  -1.4960706331341962e+00  -1.7745727593598300e+01  8.2932081476892294e-01  4.8371716069530099e-03  3.6128559987897843e-03  -2.4398875075886959e-04  -2.4853054681082758e-04  -3.5533505384203009e-04  -9.6770893030373642e-06  -4.1623118191386533e-05  -1.4197414719512255e-05  -7.0104164609578171e-05  -8.2558963205047285e-06  -2.2753751485222008e-06  -1.0837368665573246e-05  -2.5442590487556967e-05  -2.0934837066067875e-05  1.0327915699553658e-02  1.2412682467335042e-04  5.8336054601674896e-04  -5.2943515302789892e-04  2.1608838686239525e-04  2.7855035800217354e-03  -1.9376985008987709e-02  -6.6230494958362099e-02  -7.8370968816482561e-03  -3.4937192251345880e-02  -8.8185023703631436e-03  -2.7262575213790943e-06  -4.1149239399573040e-01  -1.1325525899657035e-03  9.4873294004277979e-06  -5.4164958965423549e-01  -1.0107541384040392e-01  2.4944719841362206e-01  6.6762651095849730e+00  2.2374229340843112e+01  3.0849203884353145e+01  4.5468381084575341e+01  3.3085171702857674e+00  7.6828598893585820e+01  1.2141755600675498e+02  6.8569281614341071e+02  4.6951755924299789e+02  4.0112097176402523e+02  3.0313334105372826e+02  1.8308132755334000e+01  5.3076017219232455e+01  9.7543609910967334e+01  8.1609880729464138e+01  1.6512791392776722e+02  3.8534805498089206e+01  9.9854069070796142e-07  1.6541126647051864e-05  1.5110337330839447e-05  2.4264580975138605e-06  3.2866876826937548e-05  1.6606305063614530e-05  1.6386810676291734e-06  2.4802715681862403e-05  1.3308279430512041e-05  1.7957126762324731e-06  9.3990085542168655e-06  1.0081600475187621e-05  1.6263846210953281e-06  5.2303152101681052e-06  7.2127345905597167e-06  9.9184782577250541e-07  3.8803989933202329e-06  2.6235370532742252e-06  8.0924480473584094e-07  1.6288601742278241e-06  1.9472560847985017e-06  5.0385573194683480e-07  8.6111570014402714e-07  1.1532514234653316e-06  3.1336985072889646e-07  6.3790528862755981e-07  4.7848459138167862e-07  1.8788903076608622e-07  2.3700581447517965e-07  3.4749001226966886e-07  9.8831650962501784e-08  1.6196146282563524e-07  1.1733061769335026e-07  4.2649326965142862e-08  3.5630889583272543e-08  7.4505679357151872e-08  8.0345321022967135e-09  1.3628806140434944e-08  1.2265355142191047e-09  -1.2742363041363104e-08  -1.0082905188512995e-08  -1.7353397407537118e-08  -2.5832712092579448e-08  -3.2586774946891362e-08  -2.4380914683626505e-08  -3.0715702871283083e-08  -3.4993576075811030e-08  -4.1014997857575056e-08  -3.5181969204779463e-08  -4.3798846610693170e-08  -6.3034260534600699e-08  -4.7308020793873486e-08  -6.0400935793389691e-08  -5.4150235326111560e-08  -6.7063106860852472e-08  -8.1564154857694754e-08  -1.0450372824200030e-07  -1.2763569018630042e-05  -2.7697511263305129e-07  -1.5209596961350457e-06  -3.8076652844356089e-05  -5.1777037518430072e-06  -3.1750008908599484e-05  -8.2948757017630605e-06  -1.8906940301504867e-05  -9.8362203301255097e-06  -2.0999294985758585e-05  -2.2265214032638365e-05  -2.2801383619424479e-05  -1.9717244594998546e-05  -2.2682246271710430e-05  -2.2154483073532919e-05  -2.2915326570874204e-05  -3.2848888676499218e-05  -2.4513802138006971e-05  -2.6184063881677534e-05  -6.6101857885931086e-05  -4.1066008058647807e-05  -3.2006147791754710e-05  -1.2858418218990181e-04  -5.3244281152895291e-05  -7.2795530833181309e-05  -1.8078557089541103e-04  -1.1915866900859344e-04  -9.6733433521959363e-05  -1.9192464985801723e-04  -1.5078060826479865e-04  -1.7458726910589374e-04  -1.2579686806457900e-04  -2.5045534420043390e-04  -1.9620125683820588e-04  -2.0837387677381100e-04  -7.5405543236628506e-05  -2.3135832726323520e-04  -1.9009696222345841e-04  -4.0393184147422257e-05  -2.2315304555857983e-04  -1.3725410659194061e-04  1.2492323579442478e-05  1.2182089476618645e-04  -1.1157686725123960e-04  -8.8664042631727010e-05  1.4582754656834456e-03  7.6257935792746815e-04  2.2081439606936126e-04  2.4324072253450451e-04  1.4769424989069321e-04  1.1457188201409695e-03  2.9252983148453354e-03  4.4273870236907852e-05  2.4387544552838744e-03  -2.0810102978632001e-03  -3.7521869964559967e-04  -1.1425280578966765e-02  -2.4916902624167245e-04  1.4520567926827634e-03  4.6212641989685312e-02  8.1175252785343956e-03  1.6833185347568790e-02  3.6018794316591504e-03  -2.9148368818274323e-01  2.8111927573379358e-01  9.6471899074228679e-02  -4.9095573514463204e+00  -2.6956624946272506e-01  -2.4962657313685486e+00  3.1506205031366730e-01  -1.2081830155940274e+01  -9.6926189559887792e+00  -1.1881022000908326e+00  2.7592435997486411e+00  -1.2371730740938183e+01  4.8475152415980673e+00  -5.4113068479901623e+00  -1.7781659928861284e+01  1.2798790209749967e+01  -2.3143082134744379e+01  -6.4324020038405649e+01  5.7545250753334836e+00  1.2468534462374672e+01  3.1442158186207564e+01  -5.6168694808123853e+01  4.9250910703646626e+00  5.9356817795373004e+01  -1.2504112698953712e+01  2.2514045907563789e+00  2.7881269929069043e+02  -4.1208734429023481e+00  -2.0582336195631932e+00  2.4649491018842875e+00  -1.2343576066476812e+01  -8.0428800435979486e+00  1.0240775947492492e+02  3.7998747127893132e+01  3.7506775055600392e+00  -7.3903961377781622e+00  3.1432474942137201e+01  1.9119307699444750e+01  -8.0161871154046942e+00  1.8529044476730235e+01  9.0116256252783113e+00  -6.8987065789323943e+00  8.3026649468574959e+01  1.3019976926165295e+01  1.0261193069011332e+01  -4.8705640525048510e+00  2.6172303015419516e+01  1.1796337731611576e+01  -2.9858244470237603e+00  1.2016413064188858e+02  3.1314307735695127e+01  3.0177028976599225e+01  -1.8130837438874650e+00  2.4229790399279352e+01  2.0172219932915731e+01  1.0630843346495858e+01  -2.1695175670646908e+01  -1.1415687757966508e+00  -5.6383548632174794e+00  -1.4189226500473330e+01  -9.3819783787463660e+00  -5.3882873511631999e+00  -7.5296274654338538e+00  -9.7105569842891128e+00  -1.0177068889442028e+01  -2.0427511878354232e+00  -6.1842046617111768e+00  -7.8721874324420309e+00  -7.4507778087067000e-01  -4.5713432445376467e+00  -2.6170841776042653e+00  -3.5122715381345149e-01  -1.8269804277874468e+00  -1.8685252251625248e+00  -1.1808727599300492e-01  -1.2321669122230712e+00  -5.8709801008143658e-01  -3.8829692783990163e-02  -3.1608552729770872e-01  -3.6053165692171418e-01  -5.6809912208094764e-03  -1.7914705061044126e-01  -6.5389367015534591e-02  -3.6458052811206849e-04  -4.2001474622555046e-02  -7.3105179584148907e-03  -3.2703473896647031e-02  -3.9477206351341391e-05  -2.0317746913603510e-03  -8.2664015782298928e-04  -3.0105457949458484e-06  -4.5515627046557286e-04  -8.5166065486058380e-05  -3.2083205717440340e-04  -2.6258701925869351e-07  -9.5217596683580359e-05  -2.9329605127234416e-05  -9.3594095882851936e-06  -2.0134905391299560e-07  -2.0732894011033292e-06  -6.9092600197822502e-0