<?xml version="1.0"?>
<VTKFile type="UnstructuredGrid"  version="0.1"  >
<UnstructuredGrid>
<Piece  NumberOfPoints="7863" NumberOfCells="15264">
<Points>
<DataArray  type="Float64"  NumberOfComponents="3"  format="ascii">0 0 0  0 1 0  1 1 0  1 0 0  0.25 0.15 0  0.25 0.4 0  0.5 0.4 0  0.5 0.15 0  0.6 0.6 0  0.6 0.85 0  0.75 0.85 0  0.75 0.6 0  0 0.9499999999997918 0  0 0.8999999999995836 0  0 0.8499999999996529 0  0 0.7999999999999998 0  0 0.7500000000003466 0  0 0.7000000000006934 0  0 0.6500000000010401 0  0 0.6000000000013869 0  0 0.5500000000017335 0  0 0.5000000000020587 0  0 0.4500000000018723 0  0 0.4000000000016644 0  0 0.3500000000014564 0  0 0.3000000000012483 0  0 0.2500000000010403 0  0 0.2000000000008322 0  0 0.1500000000006241 0  0 0.100000000000416 0  0 0.05000000000020799 0  0.04999999999989965 0 0  0.09999999999981467 0 0  0.1499999999997036 0 0  0.1999999999995579 0 0  0.2499999999994121 0 0  0.2999999999992664 0 0  0.3499999999991206 0 0  0.3999999999989749 0 0  0.4499999999988292 0 0  0.4999999999986943 0 0  0.5499999999988151 0 0  0.5999999999989468 0 0  0.6499999999990784 0 0  0.69999999999921 0 0  0.7499999999993417 0 0  0.7999999999994734 0 0  0.8499999999996051 0 0  0.8999999999997368 0 0  0.9499999999998684 0 0  1 0.04999999999989965 0  1 0.09999999999981467 0  1 0.1499999999997036 0  1 0.1999999999995579 0  1 0.2499999999994121 0  1 0.2999999999992664 0  1 0.3499999999991206 0  1 0.3999999999989749 0  1 0.4499999999988292 0  1 0.4999999999986943 0  1 0.5499999999988151 0  1 0.5999999999989468 0  1 0.6499999999990784 0  1 0.69999999999921 0  1 0.7499999999993417 0  1 0.7999999999994734 0  1 0.8499999999996051 0  1 0.8999999999997368 0  1 0.9499999999998684 0  0.9499999999997918 1 0  0.8999999999995836 1 0  0.8499999999996529 1 0  0.7999999999999998 1 0  0.7500000000003466 1 0  0.7000000000006934 1 0  0.6500000000010401 1 0  0.6000000000013869 1 0  0.5500000000017335 1 0  0.5000000000020587 1 0  0.4500000000018723 1 0  0.4000000000016644 1 0  0.3500000000014564 1 0  0.3000000000012483 1 0  0.2500000000010403 1 0  0.2000000000008322 1 0  0.1500000000006241 1 0  0.100000000000416 1 0  0.05000000000020799 1 0  0.25 0.3500000000002234 0  0.25 0.3000000000004466 0  0.25 0.2500000000006611 0  0.25 0.2000000000003316 0  0.2999999999999999 0.15 0  0.3499999999999999 0.15 0  0.3999999999999999 0.15 0  0.45 0.15 0  0.5 0.2000000000000022 0  0.5 0.2500000000000046 0  0.5 0.3000000000000067 0  0.5 0.3500000000000087 0  0.4500000000000001 0.4 0  0.4000000000000001 0.4 0  0.3500000000000001 0.4 0  0.3 0.4 0  0.6 0.6499999999999999 0  0.6 0.6999999999999998 0  0.6 0.7499999999999999 0  0.6 0.7999999999999999 0  0.75 0.8 0  0.75 0.7500000000000001 0  0.75 0.7000000000000001 0  0.75 0.65 0  0.7000000000000145 0.6 0  0.649999999999899 0.6 0  0.6499999999996818 0.85 0  0.6999999999997106 0.85 0  0.2987828851411449 0.699325350601735 0  0.7568105424598444 0.2773422776226307 0  0.1795454545455548 0.565909090909074 0  0.8224999999997471 0.4374999999996759 0  0.4210672245123 0.8298112703689309 0  0.1704342645355456 0.817589228320629 0  0.4288291996927651 0.5807253322680467 0  0.6700168933784714 0.4454283174013861 0  0.8465566460363076 0.1536642418117631 0  0.6487495650826139 0.1583009537413474 0  0.1302432088118011 0.6870436331969506 0  0.4678571428571685 0.6999999999999645 0  0.3001247914658854 0.8712026118102825 0  0.3037919960474855 0.5294342885375104 0  0.130623183832229 0.4401092867706953 0  0.8659552483879646 0.3224251422433174 0  0.8736312978505528 0.5612537349962974 0  0.6245633418427496 0.3030766659003465 0  0.1250000000000379 0.2750000000005539 0  0.8734358317010626 0.8762010003539712 0  0.1254835060363831 0.1258252413885224 0  0.8749999999999343 0.7250000000000005 0  0.5181687217833718 0.5314910246240141 0  0.7500000000000194 0.1068693693694355 0  0.5185460717145034 0.8908201301560481 0  0.1043949820060815 0.9055901675413394 0  0.7472304391142466 0.4937115169957552 0  0.7437057827977005 0.3796800519519853 0  0.5837666239123878 0.0953941305957148 0  0.902362942345899 0.2218145421277327 0  0.1069592086353165 0.6081316226431639 0  0.5943281866118556 0.2221187317759835 0  0.09231256724200733 0.7788120293054371 0  0.2599118360316645 0.613680451156976 0  0.386610176029564 0.6631887582313238 0  0.2537946126497011 0.7917216350769677 0  0.9088286731471231 0.4704266021303271 0  0.5063995803351647 0.6198623457584774 0  0.3860058725664629 0.914148551469585 0  0.5069733898137954 0.7690591741519245 0  0.2189083152479363 0.9142871916137685 0  0.09240943628007152 0.353587386157095 0  0.3923666487137664 0.4973261685045393 0  0.9117702211709445 0.6463336145912728 0  0.2237945603996098 0.4867857348645567 0  0.9161970975027582 0.08252283236527229 0  0.3461519581374356 0.7752338663700789 0  0.6110313179874225 0.5139303735626758 0  0.08254453868152074 0.5295949336450964 0  0.5783651695896583 0.387014424669225 0  0.7680988053275425 0.1909346846843861 0  0.9202288100287571 0.8014462386955867 0  0.08317821648800833 0.2045345244679453 0  0.6743674448775834 0.2381773292297286 0  0.8014729691714902 0.9151682085422 0  0.1982142857142988 0.08392857142857235 0  0.9156947390731955 0.3830592165702195 0  0.2099925163896727 0.7117346125224077 0  0.8288873197852951 0.7991354001759553 0  0.1710420590992359 0.2009730661079498 0  0.8302601404977216 0.6362505489697606 0  0.8278972189280196 0.2432708264037497 0  0.1724373447570453 0.3750000000001119 0  0.8263815004216721 0.07675344797416643 0  0.6734552612001731 0.07775097080953899 0  0.6322765317037635 0.9278922409848336 0  0.3328795603068665 0.07550965653377333 0  0.4218141641894588 0.07552083333321569 0  0.7202413378918148 0.9252992098071467 0  0.3398398570642138 0.5956195883200471 0  0.1876245270259333 0.6393374142670434 0  0.5053993339633923 0.07647011170888637 0  0.0718750000000897 0.07187499999995482 0  0.9281249999999797 0.9281249999999464 0  0.4615331046556409 0.4767930683020147 0  0.8132809042322462 0.3596726603183649 0  0.8134265276406807 0.5108303348297808 0  0.4201515737436131 0.7514965833054841 0  0.9273040324515954 0.1585949917491647 0  0.06708721766401626 0.6750163115727243 0  0.56422475897686 0.4552131930394481 0  0.6791346043894576 0.5327473050102175 0  0.697255269395278 0.3214473484424947 0  0.2802981881263434 0.9339285714286927 0  0.5339285714285894 0.6802981881261965 0  0.1655838508805648 0.7568246324058057 0  0.07055580426794442 0.4304123740962421 0  0.3226088857382223 0.4646105576694787 0  0.5680970217443936 0.1590416415060358 0  0.4428489297902234 0.9319457679008186 0  0.9477157065683794 0.5858496809090185 0  0.9359768099749814 0.2904579204473128 0  0.1742846135096847 0.3003953810640202 0  0.06918270446438632 0.8409433163409716 0  0.8252358436657874 0.6976195482341206 0  0.5635633234700967 0.284788731469481 0  0.5521945854607904 0.9257613588772547 0  0.3635427058143873 0.8407659882482055 0  0.4499814782289108 0.6338364401188512 0  0.2390953482890149 0.8431241519968201 0  0.1517067680066363 0.9343448395931244 0  0.06539387153795677 0.3019693576901929 0  0.2575632692678596 0.06394502601111231 0  0.6555411638130636 0.3716910457745546 0  0.1608726846099766 0.5049389228359271 0  0.934949728583427 0.6997486429173009 0  0.2433845767894122 0.5499237975678901 0  0.939237790491481 0.8554484180187727 0  0.0630223880597205 0.1401119402987738 0  0.1348958333334102 0.06197916666672756 0  0.865104166666832 0.9380208333335958 0  0.7604230740984012 0.4373799400890658 0  0.5372647219903939 0.8402823937523813 0  0.1923510154511563 0.1420055354945893 0  0.8075445196362099 0.857996515152053 0  0.1885591087578553 0.4337380820533954 0  0.7105225609509752 0.1526657632181078 0  0.3666090240151971 0.7062960373879834 0  0.7966936723524515 0.3163062291281787 0  0.5508714508660905 0.570011516337836 0  0.4721626247170084 0.554486293857005 0  0.8002707048946301 0.5730607189697422 0  0.06641773621617075 0.9351618371252797 0  0.3665814154358935 0.5517819541861106 0  0.05442204514635005 0.7231523959702606 0  0.6284828997490257 0.05004553457671893 0  0.9398712002144101 0.5109326544100544 0  0.5433787542275291 0.7375061851781469 0  0.3375061851783711 0.9433787542277096 0  0.7215297270911555 0.05410988042852424 0  0.4797837765982246 0.8425479205787176 0  0.04271365523339227 0.5671101206092209 0  0.8714625424823598 0.3953934577117953 0  0.1490428061304692 0.875151828016147 0  0.2781199925553454 0.4510243744904079 0  0.5565677762207972 0.3450127136714147 0  0.1940357533673813 0.2535689772727561 0  0.3766403934953488 0.04740981637292114 0  0.2545866346220484 0.6725938042819365 0  0.3074605043080991 0.8017072464925095 0  0.8056636005117194 0.7469721857454302 0  0.1269450100636947 0.56224828215199 0  0.05350185589295817 0.249017632611271 0  0.674777132742694 0.8963085370316726 0  0.5117683592953793 0.4496907486941994 0  0.1169833904185793 0.8254360225452316 0  0.04504201214567945 0.4768561077888308 0  0.3055599085954928 0.6382433889748717 0  0.9450727948239286 0.7538737512009489 0  0.4306417842714623 0.8796919592677241 0  0.7923856483923215 0.141724914569402 0  0.8728297214303689 0.04978308383419468 0  0.9486377781753648 0.4273242585722439 0  0.437541018947418 0.5220595462426839 0  0.9484027151197005 0.346539625994936 0  0.7281038251562784 0.2284601524070051 0  0.8668606734410613 0.6709737204112667 0  0.690214514677936 0.4804244848868111 0  0.8493847380621981 0.4812225068388546 0  0.1333737946122648 0.326539344567937 0  0.7219350493285639 0.5495541898924469 0  0.6750000000008667 0.9530034763360794 0  0.6303201059992649 0.106643697324949 0  0.7119144016103087 0.4146430422909549 0  0.3761225040737161 0.1044665480092788 0  0.1419061815543131 0.6445935072656427 0  0.5010710576848406 0.9417334264593 0  0.8586198319213173 0.207759071572462 0  0.9472598698250957 0.05274013017491718 0  0.2988553637576897 0.7535345997678686 0  0.7805552894816058 0.05315972730291021 0  0.4120655818059855 0.7045889958912197 0  0.7495113277877659 0.3294098108501303 0  0.6308381164613092 0.2525569635330791 0  0.05405789668501901 0.6246
[...]
<PointData  Scalars="f_348"> 
<DataArray  type="Float64"  Name="f_348"  format="ascii">3.0686488735380472e+01  4.4209111208556678e+01  -1.7414977244536037e-07  -4.0964848383035053e-12  -7.3204639920402175e-03  -7.8549215307429122e-03  -5.9048913535811596e-12  -8.9247401035883413e-09  1.1284320257083448e-11  1.3335662477357511e-04  5.4702068489631023e-07  -2.1951433092307019e-11  4.2647929451934004e+01  4.7060202680583537e+01  2.3579407960570325e+01  1.3066841701093557e+02  2.0398152820447854e+02  -3.8799064412005997e+01  1.2398287609436143e+02  1.0418121423699604e+02  5.4335197529731346e+01  -6.7418794516359654e+01  -1.9466170472735691e+01  -1.0178985262941593e+01  6.1623399317564118e+00  8.7585031880990503e+00  1.7671076488057089e+01  1.5666355142027831e+01  9.0078015525323849e+00  7.9648075232187363e+00  5.9876784983057929e+00  3.2431530866853158e+00  -2.2172705590185648e-02  8.1243447150794942e-03  4.6376405030849812e-04  -1.0900365408943043e-04  3.2096215776441702e-06  -6.8917793353763601e-08  1.0267472210940972e-07  -3.2695640814411010e-08  1.6274674755854408e-09  -7.7985729899218568e-10  -4.8651519619437631e-12  -1.0548783087903832e-12  -2.9960192068460329e-13  -2.0541979796661074e-14  -4.9105910608212493e-14  6.1904055789999063e-14  -8.8029007760251003e-14  -2.1068992664528003e-12  -2.6960051956962944e-12  -4.0817459855791757e-12  -5.7811164409085539e-12  -9.1780201949389683e-12  -1.4388488402136008e-11  -2.3258777010890858e-11  -3.8656798499491247e-11  -6.3790213569566927e-11  -1.0157995415454045e-10  -1.6503389482132129e-10  -2.6110105258759340e-10  -4.0879618309881174e-10  -6.4496845373940822e-10  -1.0051621046797229e-09  -1.5860657313546912e-09  -2.4417546923487154e-09  -3.9344537787404646e-09  -5.9419527993859344e-09  -7.0350089359680524e-09  -2.8154715173904024e-07  5.9278822807598515e-08  -6.4288359082543326e-08  1.6941166037894341e-08  1.6612664405545127e-07  1.0001622051963041e-06  -1.0993096607841135e-06  1.5087395825872904e-06  -2.0830265376189543e-06  1.3657766992842115e-06  3.1553631634509948e-05  3.9976760816899155e-04  -7.3201510977814093e-03  2.2539278558826665e-02  5.5787587904163227e-01  5.7876565380189193e+00  1.2602724247882128e+01  3.2732657246765342e+01  6.3104279230203993e+01  -2.6265897375587224e-03  4.4558489082407429e-05  9.9088245873086320e-06  -3.6269416706829763e-05  -1.3104434182629774e-04  -2.3879377179884031e-06  -5.1566627707516163e-07  2.1828959409016275e-07  -8.8631882545520728e-14  -1.1111118198628912e-16  -1.0995689749978456e-18  1.4930665246968140e-14  2.8917863980748645e-07  -2.0735896696101725e-06  -4.7344062315564302e-05  2.1310732034002956e-03  -2.0949475224658093e-12  1.1808993078412318e-09  2.1472827550624529e-07  -4.7164770577151590e-06  7.4090568500229051e-08  4.8882486979170810e-09  1.5793115001451014e-10  -6.6541475317711236e-12  2.6178670306362095e-14  -5.1827288617803446e-15  2.8836163171679117e-05  4.0237472368472667e-06  2.2984606290012951e+04  9.2684062027257193e-16  3.4805070419845322e+02  -8.1420282943235590e-14  7.2062632967288986e-01  3.8395722999827133e+05  7.5147962022585599e-02  7.8133246187144694e-16  -2.8772879016959348e-15  -1.0216004604406588e-09  1.5414503390083937e+03  8.1706320471856955e-02  3.1858379760122180e+00  3.1117120037028525e+00  2.8127246081126841e+03  -6.9232720011005316e-16  2.7231347801454571e-13  -1.0561547038276576e-18  2.2371877373656774e-02  -4.3483257253009905e-08  1.3559482088949524e+00  -1.3696766191254361e-11  -2.4490741739819896e-06  2.0480867848388000e-09  -1.0106382876553481e-02  4.8734414855945460e+02  2.0942668369251930e-12  9.4739019085645753e-15  1.6113312233643745e-06  1.9665623277225839e-15  2.7199105056807155e+04  -6.9581528188463056e-14  6.1926136845299811e+05  8.7401259578471297e+02  4.5076456831965224e+01  7.8078945086239546e+04  7.2474668022298006e-13  -5.1398999166967871e-05  -2.2103592675447405e-02  -1.2131929855738455e-02  -5.6670996295606450e+01  1.6766921503687736e+03  -6.0845501935809419e-02  5.0480495406916656e-11  1.3359818427817773e+00  1.0962431038138608e-11  -2.2781377149593249e+02  4.1845475798103596e-15  9.3538302916525470e+04  -4.6690023073833309e-16  4.4709728422281523e-15  4.6150207595144382e-10  7.8650506193610767e+01  1.7377280238133227e-16  -2.8219983328941353e-06  -2.8429190108934294e-01  1.4753853442814813e-13  -1.0020466493977581e+03  5.5804270210626577e-09  2.8755609777257035e-01  1.9319540661248073e-10  -1.3193568768262918e-16  -1.9638625306931234e-01  5.9995117662479029e-10  6.1449514128416066e-08  -2.4546855712012281e-04  -2.3587379313904202e-03  -2.2130994893585555e-05  -2.7868330774735843e-05  9.2291903080359162e+01  4.1919993475220263e+00  1.7500893485240345e-05  -7.0139032125306633e+00  -7.9277623700692401e-08  -1.3186344826028701e-04  -7.1757954898882172e-16  -1.0103792280930112e-12  1.0431697870305300e+01  -5.4904188796544362e-14  2.3392163656832886e+05  -1.3074862258605443e-12  -2.8600420558591460e-12  -1.2684912287047959e-16  3.8320778511485487e-01  2.2145420875093946e-06  4.0477951708157570e+03  1.8309935566758704e+04  6.2665041174687864e-03  -1.0524414782460542e-07  7.8874892327366204e-05  -1.3590473301225267e-10  -7.7977644924836109e-14  7.3138731358235844e-03  2.6226240441635087e+04  5.5298246409786711e-10  7.3045041305040909e-18  -1.3179235054605340e-03  3.4794904222924865e+00  -1.1329191881761295e-02  -2.5816821082689643e+02  -8.2351940913964711e+01  1.3932013439202767e+03  8.6132523237111343e-03  4.3087142174564503e-15  2.8856999467710416e+03  -6.7825222932216428e-11  1.8552964083095017e+02  -4.1974209710498479e-09  4.2115318359380673e+01  -7.7394752794648580e-01  -3.9399874122001177e-07  -3.6666691689648853e-15  2.4168707369800948e-03  -2.8824474026386621e-01  -2.6419646928383100e-07  5.0260828800790929e+00  -1.2340816743031877e-11  4.1973026902449635e+02  -1.5335869078734471e-15  -4.8468018126371353e-08  1.5301843312490249e-03  -3.4899052707847653e-11  -2.1953213102484241e+02  -5.2016839231381085e-01  6.4661641015053370e+04  5.8731063458184416e-08  -1.8352881375224935e-11  -2.3193287890207054e-06  1.3628104616936121e-01  2.5527153197713310e-09  -2.8417249753499314e-02  4.1874815124085017e+03  5.7298202988356630e-15  -1.6459823164470706e+02  6.7235006668671295e-03  -1.4196562876221421e-15  6.9716875465399208e-03  8.1020824376347716e-04  2.6791953344962185e+03  -3.0611916044026083e+02  -1.4496552245098960e-09  6.7866927892079084e+03  4.8222890356641204e+02  -6.1871746974844939e-05  1.2188030434504593e-08  5.0394953843603859e+05  4.2060285844719101e+03  2.9275385456825661e+03  -6.2819343204186107e-10  -2.1629633750803137e-01  3.3520386311491515e-14  1.4086134099036990e-10  -1.0945834455631392e-11  -1.4778260258460456e-02  -3.5574229784229001e-12  3.4966479413545425e-15  -2.3122307111751957e-12  -6.2632580483835754e-13  6.9771705013402641e-15  6.6664403447177041e-03  -3.7195650998881156e-11  -2.0339828015766866e-05  2.7211213594509028e-07  -4.5673525299260417e-14  -1.5409120311309804e-03  1.8054434432710943e+02  -1.4940775765755754e-04  -5.0197379215586915e-16  3.4096708041660632e-11  3.8045895177535356e+04  7.0327884069595283e-10  -1.3215953648060275e+01  3.5693169177094910e-15  -4.7017724442404067e-17  5.7553561985447850e+04  6.5366464074505893e+02  2.7073556561167451e+05  2.7184826951179170e-01  4.2427863475145124e-06  1.0924488149178548e-03  -2.0332727181221187e-13  -8.9688143128116460e-01  -2.6825302946448195e-18  -2.2839756455767389e-06  1.3949687053429952e+03  -1.0685163770339074e-03  -1.2908876606568270e-12  -1.5878689049521412e+01  -3.0656518149753186e-10  -3.1237139809278658e-13  2.4550955838035125e+02  -5.7399303207085566e-15  -1.9274782945312584e-14  3.6005036225249678e+00  1.6382475022689302e-09  3.1763254967640414e-07  3.1829055917855960e+00  3.5962112769927419e-12  5.1879584339377167e-05  -8.7459526258121733e-05  4.7140225058520877e-15  -4.1146534060876869e-06  2.4575812337654804e+02  5.7116048837574731e+01  1.7267188904993658e+04  3.6784054215836687e+02  9.2478676496061918e-17  4.9530533881993626e-11  4.4456301850249491e-01  3.7221687069265976e-03  2.5275526561579084e-16  -2.0061051552804259e-13  -5.4521715763248338e-03  -3.2557091885040822e-02  -3.9477596752083107e-04  -3.3446085559302343e+00  -1.3529146361685367e-17  8.8826600692544298e-13  -5.0975518370023507e-07  1.3304722169378255e-01  5.2618474461516264e+04  -2.6108550802063861e-02  -4.6999751672282374e-15  -3.4225612632777815e-11  -2.6473325057755015e-04  -9.9248421964421993e+00  4.9398467216172052e-12  -7.5535264750059337e-06  1.7656391695673707e-08  1.3131583893814280e+01  3.3361912715854031e-01  -3.7978891829789231e-09  3.6138103962491876e+01  -3.4737843847884515e-14  -1.0010084775755219e-01  1.1598381019341192e-13  -6.2305665316922136e-15  -1.4321727690628745e+03  -1.4354530688676265e-01  -6.3440029424863135e-14  3.7580923354575476e+04  5.7991688480931839e+02  4.3670294164162828e-02  -2.2721318017483270e+01  -5.4393473359524481e-04  3.9348763586524233e+03  -5.0623913243109506e-08  -4.7019337549529422e-11  3.7369806591793693e+00  2.5554333974645277e-07  -2.3752844345294719e-02  -3.9673665528909364e-15  -8.1629924153552812e-17  4.0534614357415165e+02  -2.2391990929354962e-09  -3.0007518040957846e-03  6.1125597154547084e-16  -3.4464302787307810e-15  -4.8693384740884459e-05  4.3830464231644942e-16  -1.6697359648007364e-11  -3.2485328814003643e-03  2.8083037363551324e+05  -2.8820926750278130e-13  4.4531651536431245e-03  6.1547654933442383e-03  -7.1620131155842501e-07  -1.3178417021817010e+00  7.2139500304214240e-17  -1.7178916117971870e+01  -1.5577277477563370e-08  -4.6129513366845538e+00  -4.6403189544131463e-08  3.5841911929361743e-11  8.1610885670715660e-10  -5.9587320667863798e-10  -1.4653257060550252e-06  -2.3973992795951818e-02  -1.3670612408884007e-14  -2.1510545132675462e-07  1.4367545713805486e+01  -1.0034161288118719e-04  -1.2059454316213307e-04  7.0497598362907521e-05  4.3664223965876986e-10  -1.0595834275754231e-09  -1.4520930780670874e-12  4.4120994935770902e-02  -1.3367447298789675e-07  -4.7748280983740017e-03  -3.3327260899289896e-01  -1.3463507084458931e-13  -1.3856415006725804e+00  -8.8298654857361562e-14  7.7401740422837844e+04  -1.6000441322848880e-05  3.0831684891229328e-13  -1.0493275977382688e-05  4.3344622038656571e+00  -5.6785691896164276e-11  7.0672106358136266e-01  -3.0014807229065452e-08  1.7324732737118858e+04  1.4454613832387581e+01  -4.4786823671150704e-17  -9.3362097505050267e-16  7.7317430028993243e+04  1.5108981125961395e-14  4.6110681811824327e+02  -2.2454875964980758e+01  -2.2242660672923003e-12  8.6640140438171928e-17  2.7417837863324598e-12  -1.7687983437019759e-06  -4.7656143705453764e-12  1.2638297509324529e-03  3.5291178020595437e-11  2.5362367089445590e+02  -1.8719461354192250e-17  -8.3163412812357706e+01  -6.6956996813504223e-13  3.0925462409898830e+02  1.8487956954482090e+02  3.2785542885723449e-06  -2.0343010202084825e-09  6.1198183949508667e-11  -1.6676739752963101e-11  -1.2370952303214883e-09  -1.8018502917185847e+02  -3.4830196020382686e-03  -2.6184029771176544e-02  5.4475608550161539e+01  -7.0094782605970398e-11  2.0958149495411053e-07  7.7336221198842953e-02  8.3745537556580235e-16  1.2687179502510055e-07  8.7315473951713658e-19  -1.1087435458798348e-14  -1.9850675091141932e-13  2.3921342494946693e-02  -2.3129489026135687e-04  9.1377911720865025e-09  1.8253951843764746e+04  -8.9176582267366464e-04  -2.0375845267052553e-14  -8.3284377762440533e+02  3.3277930727860953e-11  -1.6597107917824990e-08  8.1550056303855678e-01  2.9850391735850067e-08  -4.4729213657993647e+01  1.8876942939277569e-11  9.6725961339996184e-04  7.3412722285449320e+01  9.3649491632474076e+02  -6.2695673311131036e-14  1.6407313673252784e+05  -4.4983822504455439e+01  -1.9144380998873945e+01  9.0868210002168354e-03  2.6449260235100351e-14  1.1920382787476255e-09  2.8581588805629671e+01  6.9808526572624887e+03  -9.2860297266815028e-15  -2.4942636378609344e+00  -7.9136106721607036e-12  -4.7806615052252838e-01  -3.1258228688473422e-16  -7.6402591726752053e+02  -1.3065151642849867e-03  -1.5110151135191019e-10  -6.6763951773504502e+01  -2.9134680419410448e-17  -4.1473755893302400e+00  -2.4470400414757515e-09  4.0279511765745709e-12  3.4715731292340389e-09  5.7669806032157038e-06  -2.6626032503329048e+02  5.1499578151802922e+01  9.4305982822029680e-12  1.5177920497055888e+00  -1.2521005169993980e+00  1.5899803186996153e+05  9.9720804149631576e-14  6.7482111449671780e-14  7.2602301020986750e+04  2.4600930537430277e-02  1.3383464760536764e-15  -3.3827178086111116e-12  -9.9902763917034065e-02  6.8526096246571096e+03  7.2647460270657966e+03  -1.9421049463552934e-09  1.2204704079372026e+00  -2.0859084947673047e-16  -8.8748793767504819e-01  -7.5444512283735637e-02  7.3390143500954336e-06  2.5966567551337939e+03  -6.5294643254290142e-14  5.6615589824667290e-01  9.1159158586848205e-15  1.5604462969162469e+05  8.4629779111209384e-12  -7.3116231364222552e-12  5.3185135733866218e+01  -2.2936547972575028e+00  3.5087618734285748e-08  3.2307070218549383e-01  -6.0158150620032800e-03  -6.9873157257815968e-17  8.9665468126974355e-06  1.7737809766745885e-04  6.0557858476428602e-16  -1.2491148445485280e-05  6.5394445577703459e+00  1.7923311911211023e+01  3.0015526916815638e+00  3.9027522962939578e+01  7.2379594818695466e+01  6.4353492103717088e+01  -1.5915186666370091e-08  -3.7565662008851027e-07  -3.7750518663416987e-08  -5.7326108370188921e-12  -2.5608271249364917e-12  2.9145239540287731e-13  -1.7748167233209441e-04  -9.4011121803394429e-04  -9.7343318276480365e-02  -2.5865871341866322e-02  -7.4870247467711995e-02  -1.4424247978697189e-02  1.0429478348649112e-03  8.0959703103341343e-03  -1.4218891129733386e-02  -2.5375695855379228e-03  -5.1833716728739813e-02  4.9582742164489803e-13  -8.5575805776232473e-09  -4.3551461035658938e-10  -2.5290991560856252e-12  2.0247767142312387e-09  7.9902365943656342e-13  2.6381993959734643e-08  -7.7139292679808819e-11  -1.4933528199541977e-06  -1.6534604094990174e-08  -1.3314375711968402e-06  -5.1526557378263392e-11  -8.0032641616013248e-13  -4.5206698460457344e-09  1.4165265751802141e-08  -1.1757536835179742e-12  3.2446461115114791e-11  -2.5755253511732120e-04  7.9976394658148401e-05  1.5338592712844197e-04  6.8659766214315324e-05  -1.7123369529241868e-04  3.2811415703381147e-04  2.0941706309267035e-07  2.3460669025024984e-06  -4.0122369008569457e-07  -2.6694911817440021e-06  5.4313333517136720e-07  -1.5840918477502340e-06  -5.0347778771864634e-12  -7.0428298027147867e-13  -3.4854558943262669e-10  -5.3997122891416416e-11  -1.9170878683219572e-10  -2.8736365791716702e-10  4.5594519374819953e+01  1.4365281694067031e+01  -4.1556664386961364e+00  3.6296588100600751e+01  -2.6807330851414901e+02  -6.0774961874544019e+01  2.3037987104472002e+01  -2.8415597543426577e+02  -1.9588487042494324e+02  1.5231532485408763e+02  4.3280312644139345e+00  -2.8733461346747112e+02  3.8399628333699198e+01  3.2302153040779876e+02  1.4817847531982707e+02  1.4978794447391201e+02  -6.2899408835169538e+02  -4.6783847143312431e+02  4.0001823830144318e+01  -9.8864368965694794e+01  1.6723321400621177e+02  5.3721478096995678e-01  2.6457254793500601e+02  -5.2112717844691929e+02  -1.7758172528131237e+01  3.9630548929056329e+02  5.4703613457687607e+02  -3.0527861616584534e+01  -1.5900812988141345e+02  3.5567837197241215e+02  -2.4175587805303472e+01  -1.5595763504100105e+02  9.7452931147599543e+01  6.1838208531506824e+00  -2.0073494735423370e+02  5.4594335434526485e+01  8.1848629266389406e+00  -1.8751062713641613e+02  -9.1251088477424005e+01  1.1949390258404602e+01  -6.8996001623111070e+01  -3.0779401590003882e+01  1.7233455618403948e+01  -1.1264524810565028e+02  -4.0852070171375580e+01  -3.8035415476394888e+01  1.2390271410553586e+01  -4.8253838903950211e+01  -3.2298877203646967e+01  9.3875252065319472e+00  -3.2518654662706524e+01  -4.1884575197642263e+01  -2.3538776963451653e+01  6.8498097790873747e+00  -1.7553284764861303e+01  -1.1723453317908881e+01  -4.7790708558295707e+00  1.2578740396184906e-01  1.5978545992234590e+00  1.0557110600924065e+00  -5.7702711953939471e-03  5.9882518491003844e-01  1.3294981417894510e-03  2.6532910193913700e-01  9.3619061294885550e-02  3.4871886530313151e-01  1.1354059588470177e-04  3.2077033496306182e-02  1.0560468081908043e-02  -6.6111144424101238e-06  9.8970872013990040e-03  5.2819142277665404e-03  1.6098796771494095e-03  1.4046536233071632e-06  7.8694743813356456e-04  1.9489870252454051e-04  4.4472544936259131e-08  1.0646597012723620e-04  9.1649522227225158e-05  4.7237326281407585e-08  5.0898661468143334e-05  7.1186336180233719e-06  -1.3051971905099153e-08  3.9680618488656531e-06  2.0846649425195906e-06  -2.6352123889575930e-10  1.8103640670004248e-06  2.1531758947044375e-07  -1.3569446818136043e-10  2.0071058060001264e-07  4.7778535506315242e-08  4.9738652775030271e-09  -2.1769411825045305e-13  1.2221979811496829e-09  5.7064075092397278e-10  3.9555170231738641e-13  3.4839474469427106e-10  -2.7479341989515498e-12  3.3923048695736911e-15  1.8175865019507642e-11  -7.7614046972995000e-12  2.4375017784974858e-13  2.2205068005474307e-11  1.1099508569997010e-11  3.4798337241108744e-14  7.3898779323196740e-12  4.4523846857578741e-13  1.1749475556571892e-14  3.7328607444080482e-12  -1.4544664342780483e-13  -7.3103869218044926e-13  5.3130712506610114e-12  7.7931217041887544e-13  1.0351957321807417e-11  1.9567995383855167e-12  2.0808015555817014e-13  -3.5337809019529193e-12  1.4791642885385554e-11  5.2631927887108453e-12  3.2346065294968411e-12  -4.6016616172086906e-12  3.5997480484985205e-12  3.1459732795201519e-12  -7.3470710181362240e-12  8.4652882411695598e-13  -2.1843802157933802e-12  -1.1444938366785282e-11  -5.8956593944258831e-12  -4.5376679850887334e-12  -1.8295940990383415e-11  -8.4382977071825530e-12  -1.2878562543796972e-11  -2.9860938467679943e-11  -1.7086876176019083e-11  -2.1713645652199087e-11  -4.9865099555723090e-11  -2.5649370883711914e-11  -3.7876876803029610e-11  -2.6258418946047801e-11  -8.0424691920817088e-11  -5.1654516704678925e-11  -4.7883620456962781e-11  -1.2943856740992866e-10  -6.5335962902825865e-11  -9.2871936101893004e-11  -2.0755022904536837e-10  -1.0925657045669658e-10  -1.1644118633625563e-10  -1.7943634672845922e-10  -3.2792615593559329e-10  -2.3085633877386025e-10  -5.1778178051753415e-10  -3.1505536976431753e-10  -4.1871250990890023e-10  -2.8883502663097365e-10  -8.0544880638224775e-10  -5.3999989664610735e-10  -6.8788566586400329e-10  -1.2570644832714649e-09  -8.8688343419514555e-10  -1.1646409150932452e-09  -1.9645117578716509e-09  -1.8288452606279998e-09  -1.4945838926072478e-09  -2.0537636833452065e-09  -3.0314602004405972e-09  -3.3220542688287386e-09  -2.6245776467475508e-09  -4.7729407474857102e-09  -6.2428789568269610e-09  -4.4357713675437695e-09  -7.3682913117573604e-09  -7.1715908679701645e-09  -1.0064795961508610e-08  -1.5068623082167261e-08  -2.4432604072928134e-08  -2.8044586094017866e-08  -5.2327497908813610e-08  -8.0909372333479041e-08  -6.2542515826258717e-08  -8.0049211031812442e-08  -7.1842834768260323e-08  -1.4834642316594942e-07  -6.5219197626461289e-08  -7.9134443731804416e-08  7.0062880664508013e-08  2.9383016939770125e-07  6.1024957824460533e-08  2.7535315708830488e-07  5.7591639410057556e-07  7.0409410633942841e-07  -5.5692249683703869e-07  8.4848103604830241e-07  7.9304732736079931e-07  1.7723212584587909e-06  8.4265321101139439e-07  6.7211134685377381e-07  1.5510237855918936e-08  2.6150742502546174e-06  1.4782352030943758e-06  -1.7751309184561197e-06  1.8527293715494440e-06  -1.1365830313235939e-06  2.1737767870249117e-06  1.6719276613118133e-05  2.5979542629392405e-05  1.1309212972181844e-06  2.3464873931593129e-04  5.2508450179291984e-06  5.0569821906594341e-05  -5.4097136703187322e-04  2.3620121423609348e-03  4.5637879949156661e-03  5.6472658551154765e-04  -8.7110038754545302e-03  6.6818541138151583e-02  1.2247624967369740e-02  2.4801519200270603e-02  1.5226600013933458e-01  1.1773827561419212e-01  7.41783748901777