<?xml version="1.0"?>
<VTKFile type="UnstructuredGrid"  version="0.1"  >
<UnstructuredGrid>
<Piece  NumberOfPoints="7863" NumberOfCells="15264">
<Points>
<DataArray  type="Float64"  NumberOfComponents="3"  format="ascii">0 0 0  0 1 0  1 1 0  1 0 0  0.25 0.15 0  0.25 0.4 0  0.5 0.4 0  0.5 0.15 0  0.6 0.6 0  0.6 0.85 0  0.75 0.85 0  0.75 0.6 0  0 0.9499999999997918 0  0 0.8999999999995836 0  0 0.8499999999996529 0  0 0.7999999999999998 0  0 0.7500000000003466 0  0 0.7000000000006934 0  0 0.6500000000010401 0  0 0.6000000000013869 0  0 0.5500000000017335 0  0 0.5000000000020587 0  0 0.4500000000018723 0  0 0.4000000000016644 0  0 0.3500000000014564 0  0 0.3000000000012483 0  0 0.2500000000010403 0  0 0.2000000000008322 0  0 0.1500000000006241 0  0 0.100000000000416 0  0 0.05000000000020799 0  0.04999999999989965 0 0  0.09999999999981467 0 0  0.1499999999997036 0 0  0.1999999999995579 0 0  0.2499999999994121 0 0  0.2999999999992664 0 0  0.3499999999991206 0 0  0.3999999999989749 0 0  0.4499999999988292 0 0  0.4999999999986943 0 0  0.5499999999988151 0 0  0.5999999999989468 0 0  0.6499999999990784 0 0  0.69999999999921 0 0  0.7499999999993417 0 0  0.7999999999994734 0 0  0.8499999999996051 0 0  0.8999999999997368 0 0  0.9499999999998684 0 0  1 0.04999999999989965 0  1 0.09999999999981467 0  1 0.1499999999997036 0  1 0.1999999999995579 0  1 0.2499999999994121 0  1 0.2999999999992664 0  1 0.3499999999991206 0  1 0.3999999999989749 0  1 0.4499999999988292 0  1 0.4999999999986943 0  1 0.5499999999988151 0  1 0.5999999999989468 0  1 0.6499999999990784 0  1 0.69999999999921 0  1 0.7499999999993417 0  1 0.7999999999994734 0  1 0.8499999999996051 0  1 0.8999999999997368 0  1 0.9499999999998684 0  0.9499999999997918 1 0  0.8999999999995836 1 0  0.8499999999996529 1 0  0.7999999999999998 1 0  0.7500000000003466 1 0  0.7000000000006934 1 0  0.6500000000010401 1 0  0.6000000000013869 1 0  0.5500000000017335 1 0  0.5000000000020587 1 0  0.4500000000018723 1 0  0.4000000000016644 1 0  0.3500000000014564 1 0  0.3000000000012483 1 0  0.2500000000010403 1 0  0.2000000000008322 1 0  0.1500000000006241 1 0  0.100000000000416 1 0  0.05000000000020799 1 0  0.25 0.3500000000002234 0  0.25 0.3000000000004466 0  0.25 0.2500000000006611 0  0.25 0.2000000000003316 0  0.2999999999999999 0.15 0  0.3499999999999999 0.15 0  0.3999999999999999 0.15 0  0.45 0.15 0  0.5 0.2000000000000022 0  0.5 0.2500000000000046 0  0.5 0.3000000000000067 0  0.5 0.3500000000000087 0  0.4500000000000001 0.4 0  0.4000000000000001 0.4 0  0.3500000000000001 0.4 0  0.3 0.4 0  0.6 0.6499999999999999 0  0.6 0.6999999999999998 0  0.6 0.7499999999999999 0  0.6 0.7999999999999999 0  0.75 0.8 0  0.75 0.7500000000000001 0  0.75 0.7000000000000001 0  0.75 0.65 0  0.7000000000000145 0.6 0  0.649999999999899 0.6 0  0.6499999999996818 0.85 0  0.6999999999997106 0.85 0  0.2987828851411449 0.699325350601735 0  0.7568105424598444 0.2773422776226307 0  0.1795454545455548 0.565909090909074 0  0.8224999999997471 0.4374999999996759 0  0.4210672245123 0.8298112703689309 0  0.1704342645355456 0.817589228320629 0  0.4288291996927651 0.5807253322680467 0  0.6700168933784714 0.4454283174013861 0  0.8465566460363076 0.1536642418117631 0  0.6487495650826139 0.1583009537413474 0  0.1302432088118011 0.6870436331969506 0  0.4678571428571685 0.6999999999999645 0  0.3001247914658854 0.8712026118102825 0  0.3037919960474855 0.5294342885375104 0  0.130623183832229 0.4401092867706953 0  0.8659552483879646 0.3224251422433174 0  0.8736312978505528 0.5612537349962974 0  0.6245633418427496 0.3030766659003465 0  0.1250000000000379 0.2750000000005539 0  0.8734358317010626 0.8762010003539712 0  0.1254835060363831 0.1258252413885224 0  0.8749999999999343 0.7250000000000005 0  0.5181687217833718 0.5314910246240141 0  0.7500000000000194 0.1068693693694355 0  0.5185460717145034 0.8908201301560481 0  0.1043949820060815 0.9055901675413394 0  0.7472304391142466 0.4937115169957552 0  0.7437057827977005 0.3796800519519853 0  0.5837666239123878 0.0953941305957148 0  0.902362942345899 0.2218145421277327 0  0.1069592086353165 0.6081316226431639 0  0.5943281866118556 0.2221187317759835 0  0.09231256724200733 0.7788120293054371 0  0.2599118360316645 0.613680451156976 0  0.386610176029564 0.6631887582313238 0  0.2537946126497011 0.7917216350769677 0  0.9088286731471231 0.4704266021303271 0  0.5063995803351647 0.6198623457584774 0  0.3860058725664629 0.914148551469585 0  0.5069733898137954 0.7690591741519245 0  0.2189083152479363 0.9142871916137685 0  0.09240943628007152 0.353587386157095 0  0.3923666487137664 0.4973261685045393 0  0.9117702211709445 0.6463336145912728 0  0.2237945603996098 0.4867857348645567 0  0.9161970975027582 0.08252283236527229 0  0.3461519581374356 0.7752338663700789 0  0.6110313179874225 0.5139303735626758 0  0.08254453868152074 0.5295949336450964 0  0.5783651695896583 0.387014424669225 0  0.7680988053275425 0.1909346846843861 0  0.9202288100287571 0.8014462386955867 0  0.08317821648800833 0.2045345244679453 0  0.6743674448775834 0.2381773292297286 0  0.8014729691714902 0.9151682085422 0  0.1982142857142988 0.08392857142857235 0  0.9156947390731955 0.3830592165702195 0  0.2099925163896727 0.7117346125224077 0  0.8288873197852951 0.7991354001759553 0  0.1710420590992359 0.2009730661079498 0  0.8302601404977216 0.6362505489697606 0  0.8278972189280196 0.2432708264037497 0  0.1724373447570453 0.3750000000001119 0  0.8263815004216721 0.07675344797416643 0  0.6734552612001731 0.07775097080953899 0  0.6322765317037635 0.9278922409848336 0  0.3328795603068665 0.07550965653377333 0  0.4218141641894588 0.07552083333321569 0  0.7202413378918148 0.9252992098071467 0  0.3398398570642138 0.5956195883200471 0  0.1876245270259333 0.6393374142670434 0  0.5053993339633923 0.07647011170888637 0  0.0718750000000897 0.07187499999995482 0  0.9281249999999797 0.9281249999999464 0  0.4615331046556409 0.4767930683020147 0  0.8132809042322462 0.3596726603183649 0  0.8134265276406807 0.5108303348297808 0  0.4201515737436131 0.7514965833054841 0  0.9273040324515954 0.1585949917491647 0  0.06708721766401626 0.6750163115727243 0  0.56422475897686 0.4552131930394481 0  0.6791346043894576 0.5327473050102175 0  0.697255269395278 0.3214473484424947 0  0.2802981881263434 0.9339285714286927 0  0.5339285714285894 0.6802981881261965 0  0.1655838508805648 0.7568246324058057 0  0.07055580426794442 0.4304123740962421 0  0.3226088857382223 0.4646105576694787 0  0.5680970217443936 0.1590416415060358 0  0.4428489297902234 0.9319457679008186 0  0.9477157065683794 0.5858496809090185 0  0.9359768099749814 0.2904579204473128 0  0.1742846135096847 0.3003953810640202 0  0.06918270446438632 0.8409433163409716 0  0.8252358436657874 0.6976195482341206 0  0.5635633234700967 0.284788731469481 0  0.5521945854607904 0.9257613588772547 0  0.3635427058143873 0.8407659882482055 0  0.4499814782289108 0.6338364401188512 0  0.2390953482890149 0.8431241519968201 0  0.1517067680066363 0.9343448395931244 0  0.06539387153795677 0.3019693576901929 0  0.2575632692678596 0.06394502601111231 0  0.6555411638130636 0.3716910457745546 0  0.1608726846099766 0.5049389228359271 0  0.934949728583427 0.6997486429173009 0  0.2433845767894122 0.5499237975678901 0  0.939237790491481 0.8554484180187727 0  0.0630223880597205 0.1401119402987738 0  0.1348958333334102 0.06197916666672756 0  0.865104166666832 0.9380208333335958 0  0.7604230740984012 0.4373799400890658 0  0.5372647219903939 0.8402823937523813 0  0.1923510154511563 0.1420055354945893 0  0.8075445196362099 0.857996515152053 0  0.1885591087578553 0.4337380820533954 0  0.7105225609509752 0.1526657632181078 0  0.3666090240151971 0.7062960373879834 0  0.7966936723524515 0.3163062291281787 0  0.5508714508660905 0.570011516337836 0  0.4721626247170084 0.554486293857005 0  0.8002707048946301 0.5730607189697422 0  0.06641773621617075 0.9351618371252797 0  0.3665814154358935 0.5517819541861106 0  0.05442204514635005 0.7231523959702606 0  0.6284828997490257 0.05004553457671893 0  0.9398712002144101 0.5109326544100544 0  0.5433787542275291 0.7375061851781469 0  0.3375061851783711 0.9433787542277096 0  0.7215297270911555 0.05410988042852424 0  0.4797837765982246 0.8425479205787176 0  0.04271365523339227 0.5671101206092209 0  0.8714625424823598 0.3953934577117953 0  0.1490428061304692 0.875151828016147 0  0.2781199925553454 0.4510243744904079 0  0.5565677762207972 0.3450127136714147 0  0.1940357533673813 0.2535689772727561 0  0.3766403934953488 0.04740981637292114 0  0.2545866346220484 0.6725938042819365 0  0.3074605043080991 0.8017072464925095 0  0.8056636005117194 0.7469721857454302 0  0.1269450100636947 0.56224828215199 0  0.05350185589295817 0.249017632611271 0  0.674777132742694 0.8963085370316726 0  0.5117683592953793 0.4496907486941994 0  0.1169833904185793 0.8254360225452316 0  0.04504201214567945 0.4768561077888308 0  0.3055599085954928 0.6382433889748717 0  0.9450727948239286 0.7538737512009489 0  0.4306417842714623 0.8796919592677241 0  0.7923856483923215 0.141724914569402 0  0.8728297214303689 0.04978308383419468 0  0.9486377781753648 0.4273242585722439 0  0.437541018947418 0.5220595462426839 0  0.9484027151197005 0.346539625994936 0  0.7281038251562784 0.2284601524070051 0  0.8668606734410613 0.6709737204112667 0  0.690214514677936 0.4804244848868111 0  0.8493847380621981 0.4812225068388546 0  0.1333737946122648 0.326539344567937 0  0.7219350493285639 0.5495541898924469 0  0.6750000000008667 0.9530034763360794 0  0.6303201059992649 0.106643697324949 0  0.7119144016103087 0.4146430422909549 0  0.3761225040737161 0.1044665480092788 0  0.1419061815543131 0.6445935072656427 0  0.5010710576848406 0.9417334264593 0  0.8586198319213173 0.207759071572462 0  0.9472598698250957 0.05274013017491718 0  0.2988553637576897 0.7535345997678686 0  0.7805552894816058 0.05315972730291021 0  0.4120655818059855 0.7045889958912197 0  0.7495113277877659 0.3294098108501303 0  0.6308381164613092 0.2525569635330791 0  0.05405789668501901 0.6246
[...]
<PointData  Scalars="f_673"> 
<DataArray  type="Float64"  Name="f_673"  format="ascii">6.8737376085159829e-01  6.5212836679972097e-01  7.2515843864497753e-01  6.6848943326507060e-01  4.0310366053883745e-01  6.6746420363417852e-02  4.5963097249998952e-01  1.3322489083330971e-01  8.6309511595507393e-01  1.0065243852981740e+00  3.8021742199835468e-01  2.9854698816871576e-02  6.7694941887133042e-01  5.9234813869601033e-01  6.2680957087804345e-01  7.2605295623759603e-01  7.2245808897992925e-01  6.7562498603374221e-01  6.6191629531501484e-01  6.6156651814909084e-01  6.7836268486922313e-01  5.5096278637405283e-01  6.2771775396500473e-01  5.8330235443901557e-01  5.9275518069954369e-01  5.9959744420487893e-01  4.9449247254884754e-01  5.1385995446978461e-01  5.3577863199706077e-01  5.7864718040578145e-01  6.4386314145589296e-01  4.0573137168248952e-01  2.5027661697523407e-01  1.1484524925197219e-01  3.9448905356909658e-01  8.7053257578219156e-01  8.1052182187171451e-01  2.8703326030429627e-01  1.1402418307660422e-01  3.6615095409153547e-01  9.2612047023174271e-01  9.3774563394231514e-01  5.2769030134521444e-01  4.4582964060122340e-02  2.1288344120032487e-01  8.4107701087102404e-01  7.8548957453282597e-01  2.8444807329833433e-01  2.7395527886574056e-01  5.3237422088220931e-01  6.1141981828343051e-01  6.6491075518407305e-01  6.7432550054014828e-01  7.3974686165851200e-01  6.9249870994140561e-01  7.5887464530622806e-01  7.1334280269341521e-01  7.8338835440201016e-01  6.7205656807962877e-01  5.7957538525086205e-01  6.3098037580653499e-01  5.7253967192202315e-01  5.5061696722022591e-01  5.3975834005194034e-01  5.1967237657386067e-01  5.5754819734125827e-01  5.4938654372648399e-01  5.4065507445416550e-01  5.8921943062493209e-01  4.2800000434672503e-01  2.1851858150393896e-01  1.2762961680793325e-01  3.9384389663360031e-01  9.3761115971294318e-01  6.6804172618007951e-01  2.7595451480573335e-01  7.8231858415786920e-02  2.5855483381718580e-01  7.5095427847706531e-01  9.2397971827318204e-01  6.0358546421425086e-01  3.1956394722443701e-02  2.1058208301891435e-01  8.3082942280694438e-01  8.1662238799572906e-01  2.9537249630338891e-01  2.9253308180461107e-01  5.1444578030770394e-01  4.0442147979362914e-01  1.1160458110630320e-01  8.6811251864908984e-02  5.9336663659363387e-01  2.8182966266106757e-01  5.4007315172387493e-01  6.5740906618946238e-01  4.8262333379076733e-01  2.2939679278414113e-01  3.6275713336731685e-01  8.0064294316981555e-01  7.5772971637199615e-01  1.0522214776704057e+00  9.8119298387838882e-01  2.9272209095209395e-01  1.4736639207858506e-02  9.5694258952098224e-02  4.1842686423251866e-03  4.8247623558922748e-01  9.0762995273479607e-01  5.8216385267094484e-01  2.2508130880357169e-01  2.6699508132969135e-01  4.0769876734570532e-01  4.8945453581690328e-03  2.1799737846383807e-01  7.2054713140653759e-01  3.5078495783361940e-01  3.6085789515763234e-01  4.3010546760409030e-01  7.1769884627311753e-01  7.6979195536790868e-01  6.8685841794718228e-01  5.0227089282798465e-01  7.2417625137400254e-01  3.1312959903227411e-01  5.2039027860112985e-01  4.9582432551545613e-01  3.0499746778777831e-01  5.8266007810617582e-01  3.8838242318516997e-01  4.7748126380358841e-01  5.6794269200760794e-01  3.5870610959126203e-01  5.2856528233793143e-01  6.1657015468010057e-01  6.5545186528519495e-01  6.8191079206344651e-01  5.4001337898676893e-01  5.7840673488653016e-01  8.9858325067445100e-01  4.1958753377556762e-01  4.2438667580015066e-01  5.1721032461980743e-01  3.7748253041750623e-01  3.4295626989603462e-01  5.5165017916407155e-01  5.0550415739815713e-01  1.4236625412752899e-01  6.9257378645281631e-01  4.5760675114655863e-01  3.8885363717895166e-01  5.9151715937086891e-01  5.7579292200804166e-01  4.9258833519258521e-01  3.2018230226435523e-01  5.3745017740664658e-01  2.0927213094174302e-01  4.5320956533171425e-01  6.8605615123411356e-01  1.1575055026553735e-01  5.5503299569027531e-01  5.5412578641087373e-01  4.7786640097568039e-01  4.8415159443420613e-01  1.5346972630359496e-01  6.0585951989750331e-01  8.8754371798250209e-01  5.6747659910015091e-01  5.8561062762659077e-01  5.0721091252681505e-01  4.6577113013285038e-01  3.9148103201115658e-01  3.3879024467320373e-01  3.9783551493424885e-01  4.7887190568097682e-01  3.6563811363115262e-01  4.5730466963612598e-01  6.9064806598193329e-01  4.2379258854337787e-01  6.4665422144008955e-01  5.3384820673200750e-01  4.7645921253228984e-01  5.6356532525333680e-01  6.2624579425986659e-01  5.4068521264704572e-01  4.1274304775077508e-01  3.3146676696983624e-01  9.4699265056880888e-01  3.7846706835676963e-01  5.8027531810987631e-01  5.8888221198015023e-01  5.9099530169181991e-01  9.2603323633291523e-01  4.0843211475541041e-01  6.7592042376797423e-01  4.6949868452429400e-01  4.7798777697853695e-01  4.2088097689775467e-01  4.1284557710910735e-01  3.0191544696184680e-01  3.4321025585703019e-01  1.2571572904189707e-01  4.1849886698493799e-01  5.4869622565421583e-01  4.4238842919698851e-01  6.8716661670026979e-01  2.5655705209793922e-01  4.8134196460795475e-01  4.7586735011140907e-01  6.0231567293444166e-01  4.9458318912669669e-01  6.9172483230519299e-01  3.7741117135671365e-01  5.4387219904338824e-01  4.8882355314372583e-01  8.7132344750747515e-01  5.8455253029336474e-01  5.3412830211134699e-01  5.3305258953425794e-01  4.1600247851866479e-01  4.7246114187299432e-01  4.2746855665512040e-01  5.3179840401459977e-01  1.7385154170256006e-01  7.8888359386878837e-01  8.0455570471505033e-01  5.3070563817611360e-01  4.8886026695953239e-01  2.6440045078014363e-01  2.1290735281582784e-01  6.4028408377279500e-01  5.9513199331115196e-01  7.2105789719002922e-01  4.6492223056011101e-01  4.9442435375010174e-01  6.8811572631654949e-01  1.0809175755506939e+00  5.7211194179747893e-01  7.3603279143803513e-01  4.9086107309694743e-01  5.6999236508230811e-01  5.1883279120182446e-01  5.1285050828130418e-01  5.1950310300200309e-01  4.1086897632980923e-01  6.1203120552778922e-01  3.8344068962626138e-01  5.6971618599850704e-01  4.9345886088258661e-01  2.9584495585953557e-01  5.4174191736869648e-01  4.0405183039343934e-01  7.8164196925603946e-01  4.8744813588896185e-01  6.9859264839850232e-01  3.7247590627837635e-01  5.3151829686549401e-01  5.2352008553435148e-01  2.9850248312348004e-01  6.8593057747923880e-01  4.6063372029823885e-01  1.6481101208571119e-01  4.8104260618997630e-01  4.5974679781194799e-01  2.7821880377548608e-01  6.9555084728440508e-01  4.7475254475837475e-01  5.0736407203353440e-01  5.2703672236789878e-01  4.7246035775608775e-01  2.1519215714969001e-01  5.1340694400143483e-01  5.7675219338153105e-01  7.7752284277107764e-01  4.3951036375596103e-01  4.4453339162540373e-01  7.8399718712167221e-01  4.3289705008884299e-01  6.0214811292994341e-01  5.4588325470276067e-01  2.1923886005860130e-01  4.1259061362951388e-01  5.8703733054707541e-01  4.3350390865654470e-01  5.0397383482603098e-01  5.3749328905565064e-01  5.4627416003833007e-01  3.4413108906326395e-01  7.0003457557313054e-01  3.8429910400275619e-01  5.2520439632504534e-01  5.2362988802925781e-01  5.2133868322782451e-01  4.9277411055862108e-01  5.3611645289039134e-01  2.9530731989190678e-01  8.7446560066253298e-01  5.1507647459203088e-01  7.6794561643081360e-01  4.0801934025033465e-01  3.3390970377977769e-01  5.5416992193695014e-01  2.2485119689661837e-01  4.6725439521909440e-01  4.9997155220423539e-01  6.3129597512501445e-01  5.0332254936051279e-01  6.7559438547846462e-01  6.4985634515878210e-01  5.2861958738232073e-01  2.8917369032607759e-01  2.3437509590034084e-01  1.8437145103394670e-01  3.3444506913764305e-01  7.7969453322488436e-01  3.9953552523915359e-01  4.6589604232978449e-01  1.9599081510784175e-01  5.6152395961492862e-01  1.6262817709416091e-01  7.4973230343159414e-01  3.5370045547909934e-01  4.5389939151476216e-01  7.3167866684123462e-01  3.4645660791684341e-01  4.2021591422882321e-01  2.3316524053441626e-01  4.2433559143736133e-01  8.2392842455372572e-01  9.0901487525812774e-01  4.3084003637997709e-01  6.5888427387718873e-01  4.4299668073290743e-01  3.9216018556520582e-01  4.6492171775720231e-01  4.7380241212327406e-01  5.7863380385484919e-01  4.4213940357561871e-01  6.2912333299274792e-01  4.7970291121525566e-01  5.0396915983731505e-01  7.7852303236507148e-01  4.3830024578768201e-01  7.3422665876897109e-01  4.7971218973187973e-01  3.6185813320553234e-01  5.5474850011578947e-01  5.5936935884838590e-01  5.8826688591822163e-01  7.1500307747343561e-01  7.2937104720206125e-01  1.1751236311108615e-01  5.4464864198090857e-01  2.6900132095281870e-01  5.4675778908238726e-01  3.7314677230810261e-01  3.2469931275688152e-01  5.8695645535279217e-01  2.9290223690920775e-01  5.1620073759084761e-01  8.0970222130333580e-01  6.1972455948070537e-01  3.7134281923022117e-01  6.0831595664212634e-01  5.0978749475902130e-01  9.1791164579345219e-01  2.7460954926502784e-01  2.2026679878915900e-01  5.1500996519880116e-01  7.1674054459635372e-01  5.1666203719440040e-01  3.0035457381070674e-01  2.7001049291269619e-01  5.1646157771075152e-01  2.8305497128395585e-01  7.9447028278389775e-01  1.5989744102804199e-01  5.2512107506727146e-01  5.8558114215185875e-01  5.4415704950855803e-01  4.4522194288342593e-01  5.0323276402962103e-01  3.7123173769160978e-01  5.1494572579486475e-01  4.7639650552754986e-01  4.1096472374402715e-01  5.8683318294278397e-01  5.5276887232957672e-01  5.2095564308108888e-01  5.7344911023801937e-01  3.7055002743513671e-01  6.1970030274467314e-01  6.5628516007661830e-01  7.3703886868543911e-01  2.9154013104211274e-01  4.6941671697234288e-01  3.2094551523701020e-01  6.3759431091901309e-01  4.6860692045351410e-01  3.0920715616398647e-01  7.1540929518149154e-01  4.6367297763409276e-01  3.5875148473831792e-01  5.1426121846147999e-01  6.0534538231945478e-01  6.0631001365115433e-01  4.6775124949399594e-01  5.1852892309517951e-01  4.1807300380541002e-01  5.5625165533590315e-01  9.2577978597452626e-01  4.0209600378750959e-01  5.9735431663309968e-01  1.9897012551286269e-01  6.2305911336221897e-01  5.0646488631052211e-01  6.0932442159888900e-01  7.5215519594254210e-01  7.2439737984943176e-01  3.0530458939768218e-01  3.6871660105285764e-01  5.4683999309605391e-01  8.5983078916546463e-01  2.0754087672325336e-01  3.5363834770421299e-01  3.8046675215458486e-01  6.9714476212609056e-01  4.8134694164952796e-01  5.4233680589818767e-01  7.1996783380646789e-01  5.8625515833111064e-01  5.5634762315755892e-01  5.1528329352190561e-01  5.1945235577872351e-01  5.2119470198225348e-01  8.3549430576095474e-01  4.6572764176529391e-01  5.4925506221695042e-01  5.2398003029163487e-01  5.7019281981872705e-01  3.8784373486596718e-01  2.5299921199763242e-01  4.1669836312118597e-01  8.8749460183497719e-01  5.4171663236099310e-01  5.8798198181843297e-01  2.1278298807646753e-01  3.6112211545489831e-01  4.5827885053825307e-01  5.9329773640826089e-01  2.4103146692392788e-01  6.9867418867764108e-01  4.8547484521647982e-01  1.9798794674658488e-01  3.2349675333793959e-01  6.6486847731698628e-01  2.8829361137570614e-01  2.6871841691095938e-01  3.9033820977717326e-01  4.3388042965567852e-01  4.8646183140521360e-01  3.3853345370567645e-01  4.4819027251301646e-01  5.9997920519582648e-01  5.1775727654748793e-01  3.5917965582347219e-03  7.2095839949567897e-01  4.0498718324133887e-01  7.4281259139322342e-01  6.9198506247710523e-01  9.2350444480122607e-01  6.7380066037465636e-01  5.2976087936263427e-01  9.6357438307391741e-02  2.8626076203391981e-01  5.6215820807941030e-01  5.6722560366209107e-01  4.1956934552755848e-01  3.2865266949517102e-01  4.5667846826102965e-01  4.4348597326966438e-01  7.6284542888727846e-01  4.2309581770155225e-01  7.0431337435399266e-01  5.4481816718653253e-01  6.9000476236709496e-01  6.8195363826191324e-01  6.1938259619886316e-01  4.8371026376421911e-01  5.7161591320465455e-01  5.0091601322443569e-01  7.1849509495543684e-01  3.6625461278451615e-01  4.5285169345727477e-01  6.4163793646314293e-01  7.6942289069226552e-02  8.1840745035932971e-01  5.4692029476560300e-01  5.2667513194840565e-01  5.4189364751113878e-01  6.0774117252545512e-01  7.1686758412068130e-01  4.0745566461175126e-01  5.5650689853010649e-01  6.4447880777258704e-01  6.2182133322677591e-01  3.0242709211033142e-01  3.3750662904024747e-01  6.0750581775333978e-01  2.7511557213018084e-01  3.7225798083936662e-01  3.8763189793850228e-01  3.8668121573496722e-01  2.7193279245424629e-01  4.2699366630487223e-01  8.2116020944099644e-01  2.9456223892960420e-01  7.9296711091412309e-01  4.5737078888264426e-01  3.5931612433221782e-01  7.8063940144473432e-01  4.5743866373861508e-01  4.5469599147621320e-01  6.0593793613843516e-01  6.0963179789353084e-01  4.8877328052017005e-01  4.2611759358446472e-01  9.4876814926976930e-02  6.7286683279764947e-01  6.0264849974575208e-01  8.8312755093728301e-01  3.3843078476772975e-01  4.1028811352749966e-01  7.2675658801483201e-01  3.8933948378503247e-01  6.1034223440072155e-01  4.4418757395474756e-01  4.5241422984137897e-01  5.8623775598085170e-01  6.2907090948352995e-01  5.5947118171164756e-01  6.3172715739344765e-01  4.0431258351083832e-01  4.5215016259894469e-01  5.7508004146621228e-01  6.8228562540376669e-01  5.8505794070173744e-01  9.1924065244184039e-01  2.6916208141029069e-01  6.6500493007963479e-01  3.9644929921183619e-01  3.7398159106883955e-01  6.9088050063552675e-01  2.7921221790353701e-01  1.5965678783991924e-02  1.8301029843841951e-01  1.1826212108652137e-01  1.9600224731583918e-01  6.7918120002489502e-01  8.1379480417629957e-01  3.5235130037254037e-01  6.3905580034708853e-01  5.7345564379817793e-01  7.3226885608100756e-01  2.6453442599507820e-01  1.6331112597431521e-01  4.5909450071590580e-01  1.2250422387996725e-01  2.3299684603343893e-01  4.5121622401327272e-01  5.1334610393840019e-01  9.8989546838966802e-01  5.4186409665047164e-01  8.4657721428648824e-01  9.4364745968902308e-01  1.0846945548385389e+00  9.0976545716432278e-01  5.4447757151621390e-01  7.0809760741470651e-01  3.6882513314956539e-01  8.8761139907164532e-01  6.7653281680304411e-01  2.6950967369320322e-01  4.7542857401206295e-01  5.0694049211763093e-01  7.0766115075898117e-01  5.3724808007146618e-01  2.7574372088601889e-01  1.1546594076182847e-02  3.2242640590353633e-01  1.0548495719563965e-01  3.9586599946786383e-01  1.0432827638814186e-01  6.8019616120347148e-01  5.9588256110901516e-01  6.1684935634676652e-01  6.2361730664545600e-01  5.8886422827190021e-01  6.4568414047750611e-01  6.7904265934103958e-01  5.8208588440817233e-01  5.9148740359339025e-01  7.0442634316410213e-01  5.9206201152031324e-01  6.5615481624097993e-01  7.1735733887639697e-01  5.7375406791748440e-01  5.9412079880077795e-01  6.8227230516434723e-01  5.5056987238742527e-01  6.6028453990488101e-01  6.9135777156995548e-01  5.7539922623246964e-01  6.1414516462108948e-01  6.1907833498762765e-01  6.3714926523566573e-01  5.6027854346807193e-01  6.9268383276713952e-01  6.3990605912144150e-01  7.0597601086201955e-01  6.3542384915524164e-01  5.9179364972574977e-01  5.9851813552475552e-01  6.2070165740811067e-01  5.9017277701234971e-01  6.2543446180385709e-01  5.8427498490684360e-01  5.8223874549571075e-01  5.7828219529986480e-01  5.5103121984908776e-01  5.1544407922797375e-01  4.5772948069279645e-01  5.2469675936472449e-01  5.3306298618001446e-01  5.0704626771620231e-01  5.2311552706427311e-01  5.0442322136238704e-01  4.5561891440656466e-01  4.4159668293747084e-01  5.2871459428956968e-01  4.2899583783515599e-01  4.6560848613193490e-01  6.1320158838749961e-01  5.5207939287069263e-01  4.4807999326547221e-01  4.5464157811792932e-01  5.6253278880961566e-01  4.6569771164247198e-01  5.0073022055670013e-01  5.7856916242873535e-01  3.9605045768006675e-01  4.2811446082146465e-01  4.1015867557667990e-01  1.4346231863085915e-01  4.2541494428132032e-01  2.2458215823313118e-01  7.1182850904913531e-01  6.4966623382034283e-01  4.6109706210101092e-01  6.2310611199976396e-01  6.9645847580822884e-01  7.3158159559114377e-01  9.1832185678415656e-01  4.4540209955216181e-01  7.2002313805991347e-01  4.9793104616040601e-01  5.3186812465429256e-01  3.5594153610297929e-01  2.9121589737649473e-01  1.2311832162660793e-01  4.2934627399716563e-01  2.5171724319881178e-01  2.2498090409928720e-01  4.9880121844576236e-01  4.8071221225081268e-01  6.7662072523869587e-01  7.9446823194697458e-01  6.2535326646660916e-01  9.0873358164398821e-01  8.0432851903243163e-01  7.6052377157241702e-01  7.4707809348915788e-01  3.7425456504292631e-01  6.3548282579564086e-01  4.4524345483792055e-01  1.9490928455447934e-01  1.5023141333462411e-01  2.5144752740158877e-01  7.4863340093171957e-02  2.2740474616002285e-01  2.2471222935462878e-01  5.1447255367536326e-01  6.9268199855234480e-01  4.7645433527133935e-01  8.4739558233987688e-01  6.7155616843245747e-01  5.3553822237238757e-01  5.7508509632720350e-01  3.3173513436016594e-01  3.8296158559341342e-01  1.7151889220340180e-01  3.9827764254736725e-01  2.5418486232340443e-01  4.3231104336390308e-01  5.1532289981951496e-01  4.7997635998090715e-01  6.0130752079572958e-01  5.5811003949275251e-01  5.4421907191750296e-01  6.5981368629484893e-01  5.8652517908520951e-01  5.6955477983657532e-01  6.2822531441116891e-01  6.7794647537940522e-01  5.5502983127876704e-01  5.7329248775687391e-01  6.5341318796722436e-01  6.4405663119494028e-01  6.3518502732854876e-01  6.5360243116057937e-01  6.7768607970536199e-01  5.9155599339872700e-01  6.9367462291921178e-01  6.2112086603908256e-01  5.9992213097388303e-01  6.0867622161476898e-01  6.2195296315871540e-01  6.5575141100728263e-01  7.3365689888644137e-01  5.8651681931666344e-01  6.2586673645878854e-01  6.1646969806561080e-01  7.0902576974705200e-01  5.7138898403300242e-01  6.4989823921634127e-01  6.8498370086841109e-01  5.8382629992082258e-01  5.8524250518517296e-01  5.8410456164025404e-01  5.7322256341184563e-01  5.9134075555727561e-01  5.9723850865931138e-01  5.8680094298358521e-01  5.9073652950364397e-01  6.0218022844788699e-01  5.4876708639471961e-01  5.6877302894251203e-01  5.6050056716545682e-01  5.4462872150146080e-01  5.5131727977622469e-01  5.1674466440908751e-01  5.6011830382495242e-01  5.1921832305733395e-01  4.9364072763517347e-01  5.2738502644064778e-01  4.7122097706868687e-01  4.2550582795489178e-01  4.3968992590552547e-01  4.8033201441201195e-01  4.9249289712230315e-01  5.0094701921110540e-01  5.3716432484278431e-01  4.5848915797975998e-01  4.5531799500995601e-01  4.8065740395598544e-01  5.3712749592743625e-01  5.1541083788361064e-01  5.3812760484969779e-01  5.4429882870867030e-01  3.0334194658591257e-01  4.2323573789594521e-01  4.4193883354960373e-01  1.3206120784463959e-01  4.5933701038733588e-01  2.5121865474233790e-01  6.5993462059417940e-01  6.1031400202578001e-01  4.8437121286282547e-01  6.7444592118821944e-01  6.6776942642757631e-01  7.0536158256161741e-01  9.1127959253459989e-01  6.4113246796435397e-01  5.7267719223765179e-01  5.1067620398257696e-01  2.6412000923346579e-01  4.6464508614347266e-01  1.1548761445415730e-01  2.7698142623984545e-01  2.1657660007357113e-01  1.2197667854676572e-01  4.9457380004808610e-01  2.7551909172195815e-01  5.2727479840774205e-01  5.7614975704196714e-01  6.5569499668113829e-01  9.7263953763769839e-01  8.3435849318370570e-01  8.3663671937720019e-01  8.1500583853727171e-01  9.3440657356664059e-01  8.9021605331831077e-01  8.4183327310234057e-01  2.3406399100812905e-01  2.3178435116848825e-01  1.4714624059252335e-01  5.3360232289599518e-01  5.2821472032011998e-02  3.5979653286000873e-01  7.6936124346864990e-02  2.0950994701486411e-01  5.1218485365809341e-01  6.0657369008728035e-01  4.6756302377873149e-01  8.9755101015907690e-01  7.8651679023334675e-01  8.0488352256330487e-01  5.2076074977922693e-01  5.5766731786888157e-01  3.8654617743236780e-01  1.8028045540687132e-01  4.3205678063371777e-01  3.9198393913123630e-01  2.6887703479778630e-01  4.1391978827695058e-01  5.0995884158776916e-01  4.6881729802723987e-01  5.7832882069183478e-01  5.5213723689454342e-01  2.3740240866863768e-01  2.624114519936974