<?xml version="1.0"?>
<VTKFile type="UnstructuredGrid"  version="0.1"  >
<UnstructuredGrid>
<Piece  NumberOfPoints="1416" NumberOfCells="2750">
<Points>
<DataArray  type="Float64"  NumberOfComponents="3"  format="ascii">10000 0 0  9969.173337331546 784.5909572750695 0  9440.811062854247 337.8086441165926 0  9969.173337331289 -784.5909572783328 0  9119.461671696214 -436.047325602827 0  0 10000 0  784.5909572783328 9969.173337331289 0  436.0473256028242 9119.461671696214 0  -784.5909572750695 9969.173337331546 0  -337.8086441165958 9440.811062854247 0  -10000 0 0  -9969.173337331289 784.5909572783328 0  -9119.461671696214 436.0473256028198 0  -9969.173337331546 -784.5909572750695 0  -9440.811062854247 -337.8086441165943 0  0 -10000 0  -784.5909572783328 -9969.173337331289 0  -436.0473256028237 -9119.461671696215 0  784.5909572750695 -9969.173337331546 0  337.8086441165926 -9440.811062854247 0  1000 0 0  825.5112685286344 233.2965221726817 0  1210.652051555102 178.7580587220347 0  758.3105164940762 -28.48526495347746 0  1257.782871779572 -45.21674913664203 0  853.1788281180126 -255.1195435303564 0  1122.147561214101 -201.3091483794531 0  0 1000 0  -224.5942532759738 814.142362917265 0  28.69055186178868 757.9412270694447 0  -193.2123325114539 1112.182883894174 0  179.7197598806582 1215.220055532552 0  249.331013302979 860.3118401498294 0  -37.93559097040777 1253.495422595633 0  -1000 0 0  -824.851195817888 -232.1783906338463 0  -1210.595922923236 -178.6629795095487 0  -757.4575350892064 29.53393923004192 0  -1257.504710586107 45.16695969320045 0  -851.7633041405784 248.1772228548502 0  -1120.885945661195 200.0563625481669 0  0 -1000 0  249.0340813110638 -842.6509245101993 0  180.0207135594895 -1211.849580489497 0  18.33127838206231 -719.7561862243336 0  -45.09404287730242 -1257.692498219919 0  -252.413804548122 -852.0675834927048 0  -200.9036788868213 -1120.94680153162 0  2000 0 0  1712.325186787277 -225.5688316983879 0  1949.292517575665 -404.0263120746235 0  1758.092477153796 22.27922893435602 0  2220.4090632581 -278.1657736385001 0  2264.940937824128 12.17221832991 0  2022.901005636987 245.209440425862 0  0 2000 0  301.9748726397239 1740.654411212139 0  1.120723757020302e-12 1745.628282521672 0  388.8436927040806 1995.749174184361 0  -265.4266168243358 2269.848489623402 0  -269.5511398733495 1970.956450977053 0  14.70097338908518 2279.104059422062 0  278.8454224092475 2226.372287316351 0  -2000 0 0  -1712.325186787277 225.5688316983877 0  -1949.292517575666 404.026312074623 0  -1758.092477153796 -22.27922893435661 0  -2220.4090632581 278.1657736385 0  -2264.940937824128 -12.1722183299102 0  -2022.901005636987 -245.2094404258624 0  0 -2000 0  -225.5688316983879 -1712.325186787277 0  -404.0263120746235 -1949.292517575665 0  22.17353424893216 -1758.317218185472 0  -278.1657736385001 -2220.4090632581 0  12.17221832991003 -2264.940937824128 0  245.209440425862 -2022.901005636987 0  9876.883405952116 1564.344650397643 0  9413.741379249825 893.2779112941004 0  9723.699203978225 2334.453638552975 0  9281.686298197614 1862.981019420672 0  8978.354407498971 1302.212327038938 0  9510.565162954143 3090.169943741452 0  9171.616356661538 2425.460729511194 0  9238.7953251169 3826.834323641162 0  8786.327444180986 2855.609134985008 0  8910.065241889364 4539.904997384312 0  8576.420325493971 4088.764306853787 0  8462.074319507847 3512.480585282223 0  8526.40164354859 5224.985647146975 0  8380.046298293893 4548.240288757754 0  8090.169943758854 5877.852522911823 0  7683.770966481169 5298.80797610165 0  7874.660194180307 4750.86281684807 0  7604.059656011831 6494.480483288346 0  7228.811045347766 5749.151035153302 0  7071.067811878895 7071.067811852055 0  6882.490700411468 6265.549259424126 0  6494.480483314509 7604.059655989487 0  6558.565613988438 6766.215058556128 0  5877.852522936711 8090.169943740771 0  5735.388635244923 7423.195460774175 0  5981.697728245949 6848.506665974658 0  5224.985647170473 8526.401643534191 0  5307.257413765717 7837.676472666109 0  4539.904997404682 8910.065241878983 0  4613.173854048643 7930.353439924153 0  3826.834323658716 9238.79532510963 0  3877.010908226574 8367.304709936669 0  3090.169943755497 9510.565162949579 0  3395.404259564986 8853.279745804064 0  2334.4536385629 9723.699203975842 0  2848.849836324876 8831.763646725167 0  1564.34465040468 9876.883405951001 0  1666.047411844783 9306.350461236803 0  2135.463838140692 8932.199249345211 0  1138.519892287582 9404.047671358992 0  -1564.344650397643 9876.883405952116 0  -893.2779112941062 9413.741379249825 0  -2334.453638552975 9723.699203978225 0  -1862.981019420678 9281.686298197616 0  -1302.212327038943 8978.354407498971 0  -3090.169943741452 9510.565162954143 0  -2425.460729511197 9171.61635666154 0  -3826.834323641162 9238.7953251169 0  -2855.609134985011 8786.32744418099 0  -4539.904997384312 8910.065241889364 0  -4088.764306853793 8576.420325493971 0  -3512.480585282231 8462.074319507852 0  -5224.985647146975 8526.40164354859 0  -4548.240288757759 8380.046298293893 0  -5877.852522911823 8090.169943758854 0  -5298.807976101652 7683.770966481165 0  -4750.862816848074 7874.660194180306 0  -6494.480483288346 7604.059656011831 0  -5749.151035153306 7228.811045347762 0  -7071.067811852055 7071.067811878895 0  -6265.549259424123 6882.490700411468 0  -7604.059655989487 6494.480483314509 0  -6766.215058556127 6558.565613988435 0  -8090.169943740771 5877.852522936711 0  -7423.195460774181 5735.388635244917 0  -6848.506665974661 5981.697728245946 0  -8526.401643534191 5224.985647170473 0  -7837.676472666112 5307.257413765715 0  -8910.065241878983 4539.904997404682 0  -7930.353439924156 4613.173854048636 0  -9238.79532510963 3826.834323658716 0  -8367.304709936674 3877.010908226573 0  -9510.565162949579 3090.169943755497 0  -8853.279745804064 3395.404259564985 0  -9723.699203975842 2334.4536385629 0  -8831.763646725163 2848.849836324873 0  -9876.883405951001 1564.34465040468 0  -9306.350461236801 1666.047411844779 0  -8932.199249345213 2135.463838140684 0  -9404.047671358992 1138.519892287579 0  -9876.883405952116 -1564.344650397643 0  -9413.741379249826 -893.2779112941001 0  -9723.699203978225 -2334.453638552975 0  -9281.686298197616 -1862.981019420666 0  -8978.354407498975 -1302.212327038933 0  -9510.565162954143 -3090.169943741452 0  -9171.61635666154 -2425.460729511192 0  -9238.7953251169 -3826.834323641162 0  -8786.32744418099 -2855.609134985002 0  -8910.065241889364 -4539.904997384312 0  -8576.420325493969 -4088.764306853795 0  -8462.074319507856 -3512.480585282229 0  -8526.40164354859 -5224.985647146975 0  -8380.046298293893 -4548.240288757762 0  -8090.169943758854 -5877.852522911823 0  -7683.770966481169 -5298.807976101652 0  -7874.660194180307 -4750.862816848075 0  -7604.059656011831 -6494.480483288346 0  -7228.811045347765 -5749.151035153303 0  -7071.067811878895 -7071.067811852055 0  -6882.490700411463 -6265.549259424131 0  -6494.480483314509 -7604.059655989487 0  -6558.565613988436 -6766.215058556136 0  -5877.852522936711 -8090.169943740771 0  -5735.388635244922 -7423.195460774175 0  -5981.697728245952 -6848.506665974656 0  -5224.985647170473 -8526.401643534191 0  -5307.257413765717 -7837.676472666109 0  -4539.904997404682 -8910.065241878983 0  -4613.173854048643 -7930.353439924151 0  -3826.834323658716 -9238.79532510963 0  -3877.010908226574 -8367.304709936669 0  -3090.169943755497 -9510.565162949579 0  -3395.404259564985 -8853.279745804059 0  -2334.4536385629 -9723.699203975842 0  -2848.849836324873 -8831.763646725161 0  -1564.34465040468 -9876.883405951001 0  -1666.047411844782 -9306.350461236796 0  -2135.463838140686 -8932.199249345209 0  -1138.519892287581 -9404.047671358991 0  1564.344650397643 -9876.883405952116 0  893.2779112940983 -9413.741379249826 0  2334.453638552975 -9723.699203978225 0  1862.981019420666 -9281.686298197616 0  1302.212327038932 -8978.354407498975 0  3090.169943741452 -9510.565162954143 0  2425.460729511192 -9171.61635666154 0  3826.834323641162 -9238.7953251169 0  2855.609134985002 -8786.32744418099 0  4539.904997384312 -8910.065241889364 0  4088.764306853795 -8576.420325493969 0  3512.480585282229 -8462.074319507856 0  5224.985647146975 -8526.40164354859 0  4548.240288757762 -8380.046298293893 0  5877.852522911823 -8090.169943758854 0  5298.807976101651 -7683.770966481169 0  4750.862816848074 -7874.660194180306 0  6494.480483288346 -7604.059656011831 0  5749.151035153302 -7228.811045347768 0  7071.067811852055 -7071.067811878895 0  6265.54925942412 -6882.490700411468 0  7604.059655989487 -6494.480483314509 0  6766.215058556126 -6558.56561398844 0  8090.169943740771 -5877.852522936711 0  7423.195460774175 -5735.388635244922 0  6848.506665974652 -5981.697728245953 0  8526.401643534191 -5224.985647170473 0  7837.676472666108 -5307.257413765719 0  8910.065241878983 -4539.904997404682 0  7930.353439924147 -4613.173854048646 0  9238.79532510963 -3826.834323658716 0  8367.304709936667 -3877.010908226576 0  9510.565162949579 -3090.169943755497 0  8853.279745804059 -3395.404259564986 0  9723.699203975842 -2334.4536385629 0  8831.76364672516 -2848.849836324872 0  9876.883405951001 -1564.34465040468 0  9306.350461236796 -1666.047411844782 0  8932.199249345209 -2135.463838140685 0  9404.047671358989 -1138.519892287582 0  3890.561977844704 -3980.209838863507 0  3378.112472111499 -3620.467011831335 0  3865.652261003032 -3450.186185358944 0  3413.999318598406 -4024.335624504108 0  4503.212714161729 -3720.115308817993 0  4398.512117453444 -4241.925396324142 0  3572.533128876644 -4426.573998554646 0  3995.622341410154 -4399.580205031658 0  -3980.209838863506 -3890.561977844704 0  -3620.467011831334 -3378.112472111499 0  -3450.186185358944 -3865.652261003033 0  -4024.335624504107 -3413.999318598408 0  -3720.115308817994 -4503.21271416173 0  -4241.925396324144 -4398.512117453445 0  -4426.573998554645 -3572.533128876645 0  -4399.580205031658 -3995.622341410156 0  3980.209838863507 3890.561977844706 0  3620.467011831334 3378.
[...]
<PointData  Scalars="f_503874"> 
<DataArray  type="Float64"  Name="f_503874"  format="ascii">1.0426118075183448e+01  1.0434953576085514e+01  1.0180980629031177e+01  1.0418669689281518e+01  1.0308357679257320e+01  1.0486437185890649e+01  1.0488788333002182e+01  1.0304563027289127e+01  1.0495490674624230e+01  1.0466121241383725e+01  1.0529752225589915e+01  1.0500785360661398e+01  1.0674781931523082e+01  1.0514061183793689e+01  1.0583735939274989e+01  1.0427778160349195e+01  1.0436377845726714e+01  1.0077009243192551e+01  1.0456301091222985e+01  1.0297040266310901e+01  1.0172102362218459e+01  9.4964706324811523e+00  9.7969781096682702e+00  1.0228987302144064e+01  9.9950090425732405e+00  9.7381369151017747e+00  9.9441106119066909e+00  1.0573678271309657e+01  1.0824818208888161e+01  1.0538848406522924e+01  1.0789611450991313e+01  1.0721894278032124e+01  1.0510926522547436e+01  1.0732688404575233e+01  1.0405625625859194e+01  9.6891679163216082e+00  1.0209147196890797e+01  1.0432286883577005e+01  1.0538262195944679e+01  1.0667689716039833e+01  1.0678064093670251e+01  1.0312675215440164e+01  9.9617011364008388e+00  1.0248751764775303e+01  1.0255724651978523e+01  1.0267100334353986e+01  9.8651136623259390e+00  1.0134655787215817e+01  9.4787655142231255e+00  9.3756086261606004e+00  9.2956708299293886e+00  9.5287424730953649e+00  9.4737900055585236e+00  9.6796710751934611e+00  9.2244921712908479e+00  1.0906504339435457e+01  1.1085541657058322e+01  1.0981845498278908e+01  1.0273030020789729e+01  1.1014891597903818e+01  1.1001971681601407e+01  1.0730932866550710e+01  1.0369063237105495e+01  1.0791311603722979e+01  1.0896994871871927e+01  1.1146937274999846e+01  1.0490696923103810e+01  1.1149651282489907e+01  1.0875419974091855e+01  1.0252921316552211e+01  1.0123550152497517e+01  1.0044682777003196e+01  9.9359382433651913e+00  1.0180478750503093e+01  9.9403321569999896e+00  1.0068017482579858e+01  9.9375065396849074e+00  1.0362137113883204e+01  1.0146403655892046e+01  1.0488281285142229e+01  1.0420043808226987e+01  9.9853514372189949e+00  1.0504852645308253e+01  1.0497844519188360e+01  1.0500621871519186e+01  1.0521384347066354e+01  1.0501432176047132e+01  1.0500400951779890e+01  1.0487859657672031e+01  1.0477913326147522e+01  1.0498358987498371e+01  1.0474941675347992e+01  1.0362613972951793e+01  1.0447493848535661e+01  1.0499210519184095e+01  1.0443013781211944e+01  1.0507108765983077e+01  1.0510238136357085e+01  1.0512497918440358e+01  1.0522597053167061e+01  1.0497928195276108e+01  1.0517863740987222e+01  1.0526845954491694e+01  1.0473737406094610e+01  1.0483997027071243e+01  1.0469023224776123e+01  1.0333807925105392e+01  1.0491834939612914e+01  1.0385952164977866e+01  1.0486410427782710e+01  1.0486271729517133e+01  1.0461170038446724e+01  1.0285877061110154e+01  1.0494135795485732e+01  1.0444001983285112e+01  1.0223009789264413e+01  1.0458185101551813e+01  1.0483008923619739e+01  1.0470389552365772e+01  1.0492788047755539e+01  1.0480196046334388e+01  1.0351396449756963e+01  1.0488812496363375e+01  1.0490754608110896e+01  1.0486980559541086e+01  1.0470719493232588e+01  1.0497080206473433e+01  1.0494459020566905e+01  1.0472463514024451e+01  1.0492184623547358e+01  1.0494289204226805e+01  1.0486859699100989e+01  1.0451753213202347e+01  1.0473108480374876e+01  1.0482794551060881e+01  1.0449642969718560e+01  1.0485043073166606e+01  1.0470161182025553e+01  1.0488315389749177e+01  1.0467149093493893e+01  1.0492767211608234e+01  1.0467740033082856e+01  1.0476319417921733e+01  1.0472037809196129e+01  1.0473613006442594e+01  1.0452970231078417e+01  1.0330505711478594e+01  1.0483568047492184e+01  1.0383673167324014e+01  1.0454104453501733e+01  1.0461824383354482e+01  1.0415032893228570e+01  1.0211662560924978e+01  1.0463307559046577e+01  1.0415612090685542e+01  1.0318056122002472e+01  1.0460325123819748e+01  1.0508563778024175e+01  1.0541693780587648e+01  1.0506907187143842e+01  1.0519029025019428e+01  1.0508891740783582e+01  1.0520103530058165e+01  1.0518722031373292e+01  1.0528575784726975e+01  1.0572777232173575e+01  1.0506574113938596e+01  1.0518629922678198e+01  1.0593001635465313e+01  1.0500708675181555e+01  1.0516555801008300e+01  1.0467461149608052e+01  1.0404972833714634e+01  1.0520796962442654e+01  1.0468490885305725e+01  1.0379663312424078e+01  1.0472325330167250e+01  1.0427849822293879e+01  1.0456194517905365e+01  1.0408992691796508e+01  1.0485704724805471e+01  1.0430774241286125e+01  1.0424480327904169e+01  1.0458222592541643e+01  1.0466993771462359e+01  1.0414667623476058e+01  1.0271101198261203e+01  1.0437302260432380e+01  1.0278924140708861e+01  1.0432779433528921e+01  1.0428876313734754e+01  1.0347672304060449e+01  1.0000274655150383e+01  1.0450404794640423e+01  1.0339569516714452e+01  1.0013227796426820e+01  1.0364187746398089e+01  1.0376586154230854e+01  1.0285501601132250e+01  1.0459228376504090e+01  1.0363364543995583e+01  1.0073742848562926e+01  1.0403550890912733e+01  1.0408218521522439e+01  1.0395092525915336e+01  1.0140063132252358e+01  1.0489441343403360e+01  1.0458056042954468e+01  1.0182225730125095e+01  1.0467402072024800e+01  1.0470591881526413e+01  1.0474361828840498e+01  1.0397465118526213e+01  1.0399263361105447e+01  1.0476124468431843e+01  1.0413131487258514e+01  1.0475540415237509e+01  1.0442303872394728e+01  1.0453109162541487e+01  1.0425255531039724e+01  1.0475214909283510e+01  1.0399380972704570e+01  1.0430652010246236e+01  1.0453839986940835e+01  1.0443296979772674e+01  1.0429128617706068e+01  1.0278464558487526e+01  1.0460596815713615e+01  1.0346610553322964e+01  1.0464707233806603e+01  1.0461927599720761e+01  1.0393923877356038e+01  1.0171029291343654e+01  1.0452308727245605e+01  1.0363344699271551e+01  1.0064838059404178e+01  1.0370302545206005e+01  9.0778369378544852e+00  9.3509788217135075e+00  9.1185841636195786e+00  9.2115288751082431e+00  9.1491253024178825e+00  9.5601348694021997e+00  9.0688765201927843e+00  9.5959801798658226e+00  9.1237306893423131e+00  9.1760801920227397e+00  9.8638680357224064e+00  9.0358617388425451e+00  1.0023705919473491e+01  9.1333798025341206e+00  8.6458585929454568e+00  9.3502289692336600e+00  1.1711716028189167e+01  1.1162493407172798e+01  1.1578643576246877e+01  1.0722324007618786e+01  1.1125441251723265e+01  1.1097828402016463e+01  1.1342933339644535e+01  1.1205202939450979e+01  1.0251187447218191e+01  1.1199559434734578e+01  1.0979548615123610e+01  1.0251914090118902e+01  1.0095365195942817e+01  1.0096884065306067e+01  9.4925889978794249e+00  1.0175460495979756e+01  9.9967744969398140e+00  9.0217283157547588e+00  8.9535924357886110e+00  9.8887430728278325e+00  1.0373259946006307e+01  1.0629898691972747e+01  1.0256387784744639e+01  1.0466481022221227e+01  9.5809827908625973e+00  1.0577054715698836e+01  1.0017430392820948e+01  1.0270720927438044e+01  1.0381784041105888e+01  1.0052567897899468e+01  1.1090013910161977e+01  1.0966788536821566e+01  1.0609164766874477e+01  1.0926612218797287e+01  1.1005206537419053e+01  1.1089312664493310e+01  1.1018555999878060e+01  9.0696911874305925e+00  9.0045771244032746e+00  9.1638657253038307e+00  9.4039800196392953e+00  9.0737727176638199e+00  8.9760312702775913e+00  9.0931544068043664e+00  1.1145645372154243e+01  1.1293483690830740e+01  1.1245352143886763e+01  1.0940222284599093e+01  1.0981452485349346e+01  1.0803886170734801e+01  1.0860046753788437e+01  8.9433653348292896e+00  9.0164779171226854e+00  9.0724325416612732e+00  9.2528925958284116e+00  8.6782826789189649e+00  9.1371275238850256e+00  1.0657590941304527e+01  8.9550464599826345e+00  8.8856849159107973e+00  8.8125657336432273e+00  9.1866398978484973e+00  9.0619114125587714e+00  9.6754785871864417e+00  9.9299428277252435e+00  9.3158229603853364e+00  9.9972606725569566e+00  9.7232983921403573e+00  9.2045094809284080e+00  9.6130363103419132e+00  9.4430552708715716e+00  9.0597391756984624e+00  1.1283112531877618e+01  1.1277408270326527e+01  1.1208109528697204e+01  1.1216697009661452e+01  1.1270082929145724e+01  1.1288810503801752e+01  1.1308675642084241e+01  1.0927946076754992e+01  1.1014950921431454e+01  1.1193610892666264e+01  1.1230986959092563e+01  1.1149951155471223e+01  1.0074345538922056e+01  9.8485657652735696e+00  9.9752284196865446e+00  1.0208333133981002e+01  1.0167720445559832e+01  1.0109022566292058e+01  9.0665616943752134e+00  9.3094657189357104e+00  9.4096834174140369e+00  9.2242195481417202e+00  8.7827414974178204e+00  9.1391080753567806e+00  9.0307303323488028e+00  9.0774150523823476e+00  9.2999189584832411e+00  9.2471732820412367e+00  9.0507871549478001e+00  9.4634694004376350e+00  9.2023246344057750e+00  9.2086488947279843e+00  9.9043878183534169e+00  9.7176964902370724e+00  9.7594220401152647e+00  8.9953542236572659e+00  9.3199251630717725e+00  9.6915990113326309e+00  1.0224103075059833e+01  1.0529218696268204e+01  1.0935109862277699e+01  9.9176727107089082e+00  9.5310321725468015e+00  1.0412767755704024e+01  1.1084352044219887e+01  9.0044314424067213e+00  9.2748227348841024e+00  9.4941538259483789e+00  9.2619141782164416e+00  9.1997196621008968e+00  9.2484626487655124e+00  9.2738002031481965e+00  9.7241872298948842e+00  9.8735578510883002e+00  1.0233063458743638e+01  1.0074456408088603e+01  9.6798978258629731e+00  9.0680657683589168e+00  9.1808540832452898e+00  1.0199551378313332e+01  1.0550551772144914e+01  1.0558117609885100e+01  1.0098613851723064e+01  9.8962698836942273e+00  9.6484423522844143e+00  9.9002881656697905e+00  1.1205404573022811e+01  1.1344176379266470e+01  1.0606709941697570e+01  1.1063879509562199e+01  1.0989358444662573e+01  1.1358608463950205e+01  9.7818407887604302e+00  1.0704511855813490e+01  1.0767334502909032e+01  1.0539433681159071e+01  1.1029201393980493e+01  1.1141960903856997e+01  1.1094460625806576e+01  1.0932378553277905e+01  1.1162124399968272e+01  1.0922066849067033e+01  1.0923581182920962e+01  1.0846793750984673e+01  1.1321950711185039e+01  1.1006532617964508e+01  1.1180379935029000e+01  9.0170090129834737e+00  9.2015221162873839e+00  9.3270238966479262e+00  9.3964379746709668e+00  9.4124220058868495e+00  9.5015333108404150e+00  9.5115170954384070e+00  9.3001811703763568e+00  9.8735794098410086e+00  9.8540656460303389e+00  9.9034509246441278e+00  1.0046768667472923e+01  1.0176998393071745e+01  9.2203733804346264e+00  1.0336513283815918e+01  1.0329889439039972e+01  1.0366241917320350e+01  1.0259671209719896e+01  1.0101849505537217e+01  1.0197520709252871e+01  1.0300437400741783e+01  1.0862718037559411e+01  1.0856314477181293e+01  1.0634279116872758e+01  1.1009198484511481e+01  1.1012231899132100e+01  1.1284813037965533e+01  1.0038362788338286e+01  1.0101228747524491e+01  9.9458570113597808e+00  1.0695818649604066e+01  9.9103077401173039e+00  1.0099497454073980e+01  9.0588155048379662e+00  8.8573699748045218e+00  9.1368677335693569e+00  9.0695456427322014e+00  9.1311259857393097e+00  8.8567369383819923e+00  9.9950630717383273e+00  9.4818206812261003e+00  9.5183231342658061e+00  1.0178801732689164e+01  1.0091618797728387e+01  9.9971677433264219e+00  9.7772357945797079e+00  9.2618712072130709e+00  9.8557978987977783e+00  9.8619069775913548e+00  1.0281407452511171e+01  9.9552858700510924e+00  1.0337879882617536e+01  1.0173807753715513e+01  1.0044454693286058e+01  1.0844947627919728e+01  1.0694118685812890e+01  1.0720316527077067e+01  1.0687955934861773e+01  1.0410217974499993e+01  1.0529365799005589e+01  1.0536407926218770e+01  1.0637740183284256e+01  1.0707752635767047e+01  9.6609152155506361e+00  9.3910923942068898e+00  9.9940228726794533e+00  9.7999572962120265e+00  1.0239652963624826e+01  9.8297932947309619e+00  1.0266460913390850e+01  1.0169829667891829e+01  9.8535704742196675e+00  1.0088055396375132e+01  1.0135772520508144e+01  1.0180890347603437e+01  1.0338474537122508e+01  1.0308944114898415e+01  1.0240118366301839e+01  1.0337347257195402e+01  1.0296488453952858e+01  1.0462422418299424e+01  1.0697740625626309e+01  1.0865904692818397e+01  1.0895344421806675e+01  1.0688991335440495e+01  1.0725781866109800e+01  1.0829950279498954e+01  1.0786294549264618e+01  9.9206150852987047e+00  8.9947037051023653e+00  9.0067033366395020e+00  9.1737050214538982e+00  1.0184019020684444e+01  1.1143105165497984e+01  1.0513052415139198e+01  9.8881331515022577e+00  1.0005228739171281e+01  9.7228233495450045e+00  1.0120737643971673e+01  1.0054965531419276e+01  1.0151099709734119e+01  9.4163937117407794e+00  9.9727677775679791e+00  1.0097763616873223e+01  9.6511760846112935e+00  1.0532257597842390e+01  1.0515494384878165e+01  9.3628015870035348e+00  9.3059268750982547e+00  1.0891704223038506e+01  1.0222577901793537e+01  1.1016321342456573e+01  9.3129788983642960e+00  8.8546975907505789e+00  1.0420742953729698e+01  1.1048181276124836e+01  1.1276229200308990e+01  9.9933184186055719e+00  9.3198688225427038e+00  9.0122959346784164e+00  9.5978655550598955e+00  9.4673710767919381e+00  1.0246682815598920e+01  9.5387757073747732e+00  9.8507487354488728e+00  9.4613156348667840e+00  9.1093913869351226e+00  8.9378103659863388e+00  9.4510159400992038e+00  9.4335922653803976e+00  9.4835956990273171e+00  9.4069400294114338e+00  9.4359931325191599e+00  1.0500108889689457e+01  1.0727321701267599e+01  1.0846101911737556e+01  1.0045619750235645e+01  1.0105729264368124e+01  9.3639123523563708e+00  1.0758190516502626e+01  1.0413793583614185e+01  1.0680823133272316e+01  9.4221237737652732e+00  1.0375082172947296e+01  1.0230110655194098e+01  9.2812999067410704e+00  1.0116655265846363e+01  1.0574777945847911e+01  1.0247654960690548e+01  8.6028219264107744e+00  8.9216620881210851e+00  9.1672288155717077e+00  9.6307241642476633e+00  9.2914277862296260e+00  9.2285995129317602e+00  9.4160161768062878e+00  8.6479843738819824e+00  8.9822759632020368e+00  8.9787306636032049e+00  9.2129358834602169e+00  9.8395396203781189e+00  8.9500171849991990e+00  9.2396014197841865e+00  9.6187727931803764e+00  9.0039267396938758e+00  1.0988595728500936e+01  1.0638470534781703e+01  1.0823703014454058e+01  1.0544127101121283e+01  1.0984454672121579e+01  1.0881506555666727e+01  1.0894559306283266e+01  1.1042194337149455e+01  1.0447012578316230e+01  1.0360470865644263e+01  1.0351080747680758e+01  1.0420284607483532e+01  1.0329989853203880e+01  1.0363965358455600e+01  1.0500570013575468e+01  1.0494314687768215e+01  1.1060283871598596e+01  1.1265438242557897e+01  1.1265324289039242e+01  1.1099922346095063e+01  1.1267980992731102e+01  1.0987969615052350e+01  1.1408546720205139e+01  1.0895479196422725e+01  1.1503221564398320e+01  1.0840172194705302e+01  1.1600540063701088e+01  1.0483091059121353e+01  1.0277982011624841e+01  1.0775287874441897e+01  1.0006649122450421e+01  9.5492090645142493e+00  9.6540579566589777e+00  1.0115840891184462e+01  1.0100206716944115e+01  9.8690322444808736e+00  9.6244458605704057e+00  1.0637223978701170e+01  1.0053349655781451e+01  1.0418308343112868e+01  1.0346811572260430e+01  1.0266884033956652e+01  1.0087167178984568e+01  1.0364660938522302e+01  9.8720280163748129e+00  9.6702834274024987e+00  9.7009790168645740e+00  9.2766613651575316e+00  8.7320516772103502e+00  9.8109909094388676e+00  1.0007205849483762e+01  8.9533463719649777e+00  8.8550791820658183e+00  9.1301267834927149e+00  9.3275828455929446e+00  8.9978428988053203e+00  9.1047096323502927e+00  9.5346516092409068e+00  9.6176567644339190e+00  8.7799232390375845e+00  8.9395039770358569e+00  9.2100928750977875e+00  9.2820648216414643e+00  9.5582946240487381e+00  9.1141300313791120e+00  1.1194717355796573e+01  1.1088042260784386e+01  1.0712724214256315e+01  1.1184173570332264e+01  1.1143988511274610e+01  1.0638749896462194e+01  1.1152406373325258e+01  9.8308083123275871e+00  8.5717445692424370e+00  9.0792478912293291e+00  9.8285406213292354e+00  1.0536227159320955e+01  1.0246259609419916e+01  1.0549186954403529e+01  1.0464404868814572e+01  1.0926427620820997e+01  1.0812382403068550e+01  1.1183430497035827e+01  1.0465466118747178e+01  1.0633842298098507e+01  1.0629154783302047e+01  1.0662446382221798e+01  1.0971318970528387e+01  9.7390168456258088e+00  9.9251116510453858e+00  9.8343066492422615e+00  1.0107924973314839e+01  9.9668383755148415e+00  1.0092927122326591e+01  1.0027180840035971e+01  9.9014610262202876e+00  9.2220878345307309e+00  8.7903037874148175e+00  8.7413929964677273e+00  9.8912440920964873e+00  1.0343724453563130e+01  1.0243476413806045e+01  1.0295348068832467e+01  9.8787647925680435e+00  1.0969500132554268e+01  1.1252411214309582e+01  1.1062379323656959e+01  1.1318192557249493e+01  1.0963604195888568e+01  1.0977298848814188e+01  1.0891093884696991e+01  1.0629704639168791e+01  9.7572217132107948e+00  9.1531138986981766e+00  1.0561810770455338e+01  1.0100538332723428e+01  1.0690736916538004e+01  9.7957131834063542e+00  1.0061595825191498e+01  9.1972820540676707e+00  9.5891184843770496e+00  9.6731120347295754e+00  1.0126933984925014e+01  9.7466275659301846e+00  9.8593447170219459e+00  1.1397150777684953e+01  1.1388864698403198e+01  1.1539972470608834e+01  1.1101163451983592e+01  1.0522961344472129e+01  1.1254122065726872e+01  1.1339001878376914e+01  1.0289704629312132e+01  1.0512134918665090e+01  1.0488079251818489e+01  1.0817436925203761e+01  1.0473371744668315e+01  9.7260276124775071e+00  1.0050166760816003e+01  9.0324611716531074e+00  1.0869537647902968e+01  1.1101118973634033e+01  1.0918928788311730e+01  1.0876490963520721e+01  1.0329260335183511e+01  1.0982329207925783e+01  1.0828452883532707e+01  1.1065277576133594e+01  9.4206383442086796e+00  1.0081947650066791e+01  1.0297713458350334e+01  9.1984659515950167e+00  9.9877989135272767e+00  1.0103358479182464e+01  1.0184046995217951e+01  9.0017297094313893e+00  9.1184845750353087e+00  9.4976645944628491e+00  9.0320272961211927e+00  9.2628478123548916e+00  9.0166464637460564e+00  9.3058201597512973e+00  8.9614021730234068e+00  8.9539376715205528e+00  9.0935018327144963e+00  9.8081677540354200e+00  9.2963829193633138e+00  9.5738597538835819e+00  9.4339503602472341e+00  8.3179634573255417e+00  1.0330373970518055e+01  1.0325509439272480e+01  1.0267838592084450e+01  1.0253795561992581e+01  1.0152998361686819e+01  9.7242805166026329e+00  9.7945094912734536e+00  1.0414619232436234e+01  1.0356394653067234e+01  9.7723772401764890e+00  9.6716865291335186e+00  1.0419834596754621e+01  9.4071679933580423e+00  9.9591039084442095e+00  9.5084409904811160e+00  9.8037082758515055e+00  9.4780611781981392e+00  9.0418975748673471e+00  1.0166454150252418e+01  1.0176573064043009e+01  9.3380138726985926e+00  1.0616914838944510e+01  9.6113787291165949e+00  1.0021600818233251e+01  1.0218089179682925e+01  9.2701164534043645e+00  8.7849735063532943e+00  8.8610603749701475e+00  9.1366965349072267e+00  9.6854762859419470e+00  8.8794378974511261e+00  9.4883743142445329e+00  1.1400715090533351e+01  1.1242598695101895e+01  1.0561274724058261e+01  1.0811197034068602e+01  1.0874077508381124e+01  1.0763857504880651e+01  1.1040081076289649e+01  9.8508084129803617e+00  1.0230440378458637e+01  9.4132761816039690e+00  1.0251301753333289e+01  1.0682356805850672e+01  1.0170461778037279e+01  1.0568992385441893e+01  1.0802294337240568e+01  1.1647889415563268e+01  1.1416871432448410e+01  1.0938682016203902e+01  1.0713535215574508e+01  1.0321556441067182e+01  1.0190772281848520e+01  9.8074477519371701e+00  9.0863878289852913e+00  1.0143608359779401e+01  9.2899021307481267e+00  1.0157690655883314e+01  9.9734110322420921e+00  9.3137161834533391e+00  1.1325129152983923e+01  1.1661765252292174e+01  1.1369840970905443e+01  1.0966251667997078e+01  1.1009015359734745e+01  1.1015827930247831e+01  1.0968868511850550e+01  9.2334318823346742e+00  1.0162103106424603e+01  9.6864415397367356e+00  9.6487698754205482e+00  9.3661466077672628e+00  9.0076000012283615e+00  8.6719859495218827e+00  1.1331153394346266e+01  1.1171981405359961e+01  1.1079340895289706e+01  1.0825536077087307e+01  1.1208194899851362e+01  1.1196872013008699e+01  9.1553213687649944e+00  9.6942257546542070e+00  9.891172410