<?xml version="1.0"?>
<VTKFile type="UnstructuredGrid"  version="0.1"  >
<UnstructuredGrid>
<Piece  NumberOfPoints="1416" NumberOfCells="2750">
<Points>
<DataArray  type="Float64"  NumberOfComponents="3"  format="ascii">10000 0 0  9969.173337331546 784.5909572750695 0  9440.811062854247 337.8086441165926 0  9969.173337331289 -784.5909572783328 0  9119.461671696214 -436.047325602827 0  0 10000 0  784.5909572783328 9969.173337331289 0  436.0473256028242 9119.461671696214 0  -784.5909572750695 9969.173337331546 0  -337.8086441165958 9440.811062854247 0  -10000 0 0  -9969.173337331289 784.5909572783328 0  -9119.461671696214 436.0473256028198 0  -9969.173337331546 -784.5909572750695 0  -9440.811062854247 -337.8086441165943 0  0 -10000 0  -784.5909572783328 -9969.173337331289 0  -436.0473256028237 -9119.461671696215 0  784.5909572750695 -9969.173337331546 0  337.8086441165926 -9440.811062854247 0  1000 0 0  825.5112685286344 233.2965221726817 0  1210.652051555102 178.7580587220347 0  758.3105164940762 -28.48526495347746 0  1257.782871779572 -45.21674913664203 0  853.1788281180126 -255.1195435303564 0  1122.147561214101 -201.3091483794531 0  0 1000 0  -224.5942532759738 814.142362917265 0  28.69055186178868 757.9412270694447 0  -193.2123325114539 1112.182883894174 0  179.7197598806582 1215.220055532552 0  249.331013302979 860.3118401498294 0  -37.93559097040777 1253.495422595633 0  -1000 0 0  -824.851195817888 -232.1783906338463 0  -1210.595922923236 -178.6629795095487 0  -757.4575350892064 29.53393923004192 0  -1257.504710586107 45.16695969320045 0  -851.7633041405784 248.1772228548502 0  -1120.885945661195 200.0563625481669 0  0 -1000 0  249.0340813110638 -842.6509245101993 0  180.0207135594895 -1211.849580489497 0  18.33127838206231 -719.7561862243336 0  -45.09404287730242 -1257.692498219919 0  -252.413804548122 -852.0675834927048 0  -200.9036788868213 -1120.94680153162 0  2000 0 0  1712.325186787277 -225.5688316983879 0  1949.292517575665 -404.0263120746235 0  1758.092477153796 22.27922893435602 0  2220.4090632581 -278.1657736385001 0  2264.940937824128 12.17221832991 0  2022.901005636987 245.209440425862 0  0 2000 0  301.9748726397239 1740.654411212139 0  1.120723757020302e-12 1745.628282521672 0  388.8436927040806 1995.749174184361 0  -265.4266168243358 2269.848489623402 0  -269.5511398733495 1970.956450977053 0  14.70097338908518 2279.104059422062 0  278.8454224092475 2226.372287316351 0  -2000 0 0  -1712.325186787277 225.5688316983877 0  -1949.292517575666 404.026312074623 0  -1758.092477153796 -22.27922893435661 0  -2220.4090632581 278.1657736385 0  -2264.940937824128 -12.1722183299102 0  -2022.901005636987 -245.2094404258624 0  0 -2000 0  -225.5688316983879 -1712.325186787277 0  -404.0263120746235 -1949.292517575665 0  22.17353424893216 -1758.317218185472 0  -278.1657736385001 -2220.4090632581 0  12.17221832991003 -2264.940937824128 0  245.209440425862 -2022.901005636987 0  9876.883405952116 1564.344650397643 0  9413.741379249825 893.2779112941004 0  9723.699203978225 2334.453638552975 0  9281.686298197614 1862.981019420672 0  8978.354407498971 1302.212327038938 0  9510.565162954143 3090.169943741452 0  9171.616356661538 2425.460729511194 0  9238.7953251169 3826.834323641162 0  8786.327444180986 2855.609134985008 0  8910.065241889364 4539.904997384312 0  8576.420325493971 4088.764306853787 0  8462.074319507847 3512.480585282223 0  8526.40164354859 5224.985647146975 0  8380.046298293893 4548.240288757754 0  8090.169943758854 5877.852522911823 0  7683.770966481169 5298.80797610165 0  7874.660194180307 4750.86281684807 0  7604.059656011831 6494.480483288346 0  7228.811045347766 5749.151035153302 0  7071.067811878895 7071.067811852055 0  6882.490700411468 6265.549259424126 0  6494.480483314509 7604.059655989487 0  6558.565613988438 6766.215058556128 0  5877.852522936711 8090.169943740771 0  5735.388635244923 7423.195460774175 0  5981.697728245949 6848.506665974658 0  5224.985647170473 8526.401643534191 0  5307.257413765717 7837.676472666109 0  4539.904997404682 8910.065241878983 0  4613.173854048643 7930.353439924153 0  3826.834323658716 9238.79532510963 0  3877.010908226574 8367.304709936669 0  3090.169943755497 9510.565162949579 0  3395.404259564986 8853.279745804064 0  2334.4536385629 9723.699203975842 0  2848.849836324876 8831.763646725167 0  1564.34465040468 9876.883405951001 0  1666.047411844783 9306.350461236803 0  2135.463838140692 8932.199249345211 0  1138.519892287582 9404.047671358992 0  -1564.344650397643 9876.883405952116 0  -893.2779112941062 9413.741379249825 0  -2334.453638552975 9723.699203978225 0  -1862.981019420678 9281.686298197616 0  -1302.212327038943 8978.354407498971 0  -3090.169943741452 9510.565162954143 0  -2425.460729511197 9171.61635666154 0  -3826.834323641162 9238.7953251169 0  -2855.609134985011 8786.32744418099 0  -4539.904997384312 8910.065241889364 0  -4088.764306853793 8576.420325493971 0  -3512.480585282231 8462.074319507852 0  -5224.985647146975 8526.40164354859 0  -4548.240288757759 8380.046298293893 0  -5877.852522911823 8090.169943758854 0  -5298.807976101652 7683.770966481165 0  -4750.862816848074 7874.660194180306 0  -6494.480483288346 7604.059656011831 0  -5749.151035153306 7228.811045347762 0  -7071.067811852055 7071.067811878895 0  -6265.549259424123 6882.490700411468 0  -7604.059655989487 6494.480483314509 0  -6766.215058556127 6558.565613988435 0  -8090.169943740771 5877.852522936711 0  -7423.195460774181 5735.388635244917 0  -6848.506665974661 5981.697728245946 0  -8526.401643534191 5224.985647170473 0  -7837.676472666112 5307.257413765715 0  -8910.065241878983 4539.904997404682 0  -7930.353439924156 4613.173854048636 0  -9238.79532510963 3826.834323658716 0  -8367.304709936674 3877.010908226573 0  -9510.565162949579 3090.169943755497 0  -8853.279745804064 3395.404259564985 0  -9723.699203975842 2334.4536385629 0  -8831.763646725163 2848.849836324873 0  -9876.883405951001 1564.34465040468 0  -9306.350461236801 1666.047411844779 0  -8932.199249345213 2135.463838140684 0  -9404.047671358992 1138.519892287579 0  -9876.883405952116 -1564.344650397643 0  -9413.741379249826 -893.2779112941001 0  -9723.699203978225 -2334.453638552975 0  -9281.686298197616 -1862.981019420666 0  -8978.354407498975 -1302.212327038933 0  -9510.565162954143 -3090.169943741452 0  -9171.61635666154 -2425.460729511192 0  -9238.7953251169 -3826.834323641162 0  -8786.32744418099 -2855.609134985002 0  -8910.065241889364 -4539.904997384312 0  -8576.420325493969 -4088.764306853795 0  -8462.074319507856 -3512.480585282229 0  -8526.40164354859 -5224.985647146975 0  -8380.046298293893 -4548.240288757762 0  -8090.169943758854 -5877.852522911823 0  -7683.770966481169 -5298.807976101652 0  -7874.660194180307 -4750.862816848075 0  -7604.059656011831 -6494.480483288346 0  -7228.811045347765 -5749.151035153303 0  -7071.067811878895 -7071.067811852055 0  -6882.490700411463 -6265.549259424131 0  -6494.480483314509 -7604.059655989487 0  -6558.565613988436 -6766.215058556136 0  -5877.852522936711 -8090.169943740771 0  -5735.388635244922 -7423.195460774175 0  -5981.697728245952 -6848.506665974656 0  -5224.985647170473 -8526.401643534191 0  -5307.257413765717 -7837.676472666109 0  -4539.904997404682 -8910.065241878983 0  -4613.173854048643 -7930.353439924151 0  -3826.834323658716 -9238.79532510963 0  -3877.010908226574 -8367.304709936669 0  -3090.169943755497 -9510.565162949579 0  -3395.404259564985 -8853.279745804059 0  -2334.4536385629 -9723.699203975842 0  -2848.849836324873 -8831.763646725161 0  -1564.34465040468 -9876.883405951001 0  -1666.047411844782 -9306.350461236796 0  -2135.463838140686 -8932.199249345209 0  -1138.519892287581 -9404.047671358991 0  1564.344650397643 -9876.883405952116 0  893.2779112940983 -9413.741379249826 0  2334.453638552975 -9723.699203978225 0  1862.981019420666 -9281.686298197616 0  1302.212327038932 -8978.354407498975 0  3090.169943741452 -9510.565162954143 0  2425.460729511192 -9171.61635666154 0  3826.834323641162 -9238.7953251169 0  2855.609134985002 -8786.32744418099 0  4539.904997384312 -8910.065241889364 0  4088.764306853795 -8576.420325493969 0  3512.480585282229 -8462.074319507856 0  5224.985647146975 -8526.40164354859 0  4548.240288757762 -8380.046298293893 0  5877.852522911823 -8090.169943758854 0  5298.807976101651 -7683.770966481169 0  4750.862816848074 -7874.660194180306 0  6494.480483288346 -7604.059656011831 0  5749.151035153302 -7228.811045347768 0  7071.067811852055 -7071.067811878895 0  6265.54925942412 -6882.490700411468 0  7604.059655989487 -6494.480483314509 0  6766.215058556126 -6558.56561398844 0  8090.169943740771 -5877.852522936711 0  7423.195460774175 -5735.388635244922 0  6848.506665974652 -5981.697728245953 0  8526.401643534191 -5224.985647170473 0  7837.676472666108 -5307.257413765719 0  8910.065241878983 -4539.904997404682 0  7930.353439924147 -4613.173854048646 0  9238.79532510963 -3826.834323658716 0  8367.304709936667 -3877.010908226576 0  9510.565162949579 -3090.169943755497 0  8853.279745804059 -3395.404259564986 0  9723.699203975842 -2334.4536385629 0  8831.76364672516 -2848.849836324872 0  9876.883405951001 -1564.34465040468 0  9306.350461236796 -1666.047411844782 0  8932.199249345209 -2135.463838140685 0  9404.047671358989 -1138.519892287582 0  3890.561977844704 -3980.209838863507 0  3378.112472111499 -3620.467011831335 0  3865.652261003032 -3450.186185358944 0  3413.999318598406 -4024.335624504108 0  4503.212714161729 -3720.115308817993 0  4398.512117453444 -4241.925396324142 0  3572.533128876644 -4426.573998554646 0  3995.622341410154 -4399.580205031658 0  -3980.209838863506 -3890.561977844704 0  -3620.467011831334 -3378.112472111499 0  -3450.186185358944 -3865.652261003033 0  -4024.335624504107 -3413.999318598408 0  -3720.115308817994 -4503.21271416173 0  -4241.925396324144 -4398.512117453445 0  -4426.573998554645 -3572.533128876645 0  -4399.580205031658 -3995.622341410156 0  3980.209838863507 3890.561977844706 0  3620.467011831334 3378.
[...]
<PointData  Scalars="f_503850"> 
<DataArray  type="Float64"  Name="f_503850"  format="ascii">1.0337260065430968e+01  1.0296955919761839e+01  1.0126761919670614e+01  1.0392054580454808e+01  1.0189412369643772e+01  1.0381626154604136e+01  1.0384323262688284e+01  1.0100421327829716e+01  1.0380219614685645e+01  1.0222329502890247e+01  1.0543121059278100e+01  1.0519368285224227e+01  1.0607082561672108e+01  1.0539992117213083e+01  1.0586843703696882e+01  1.0351205810052107e+01  1.0337367507319433e+01  1.0047498073474861e+01  1.0356773062238334e+01  1.0208400367446435e+01  9.0969222582495224e+00  9.3736815944277510e+00  9.0940783023529299e+00  9.2294218638760608e+00  8.9952194064102766e+00  9.0720561347855799e+00  8.9972577169800090e+00  1.0983733029195925e+01  1.0964706709633100e+01  1.0723172450497877e+01  1.1163577861188349e+01  1.1044278677233367e+01  1.0697588476897160e+01  1.1146777066471993e+01  1.0189184456698777e+01  9.6644495213205879e+00  9.9517103806676896e+00  1.0126656589967730e+01  1.0405713601972446e+01  1.0571875239309763e+01  1.0623983522188825e+01  9.5326074677521468e+00  9.4838595571210469e+00  9.7852467794632112e+00  9.4130277657913926e+00  9.6984774776716893e+00  9.3110731780430047e+00  9.4814172521970832e+00  9.2169796705347657e+00  9.2063049260098140e+00  9.6924149072442152e+00  9.0599450045922225e+00  9.8536332588291078e+00  9.4093827506812460e+00  9.0157323141473622e+00  1.0845301753911693e+01  1.0801089794437157e+01  1.1000413540841986e+01  1.0430605266185038e+01  1.0947897409471244e+01  1.0973874417832809e+01  1.0779021922433888e+01  1.0475912734840820e+01  1.0570792031359726e+01  1.0841650965783112e+01  1.1045058390517445e+01  1.0452561253084891e+01  1.0973128480793815e+01  1.0680075472340508e+01  1.0103698270842083e+01  1.0083816335491049e+01  9.9451695552195005e+00  1.0055362791188188e+01  1.0054193174619835e+01  1.0146141650211455e+01  1.0025328521098617e+01  1.0061622972063729e+01  1.0354403449082724e+01  1.0124593487527207e+01  1.0425749638220768e+01  1.0289129812027747e+01  1.0040378906316427e+01  1.0471355081280084e+01  1.0390843061837019e+01  1.0479031002307261e+01  1.0426700552381591e+01  1.0463088167193504e+01  1.0433937072172734e+01  1.0416473859220847e+01  1.0453757908780020e+01  1.0421712756996122e+01  1.0451380165032605e+01  1.0379747781686909e+01  1.0360631667470074e+01  1.0474802546709984e+01  1.0398537145775224e+01  1.0498329797206006e+01  1.0457646585595185e+01  1.0501708505253617e+01  1.0497442168127760e+01  1.0484029318576109e+01  1.0483808421265708e+01  1.0502946550435192e+01  1.0455365539635959e+01  1.0445138421825947e+01  1.0433170630680996e+01  1.0344609521452565e+01  1.0418854103069647e+01  1.0291534937030258e+01  1.0401000016678930e+01  1.0322291765357958e+01  1.0389015572009606e+01  1.0241716781180900e+01  1.0379324446937932e+01  1.0249866355653866e+01  1.0161978459314316e+01  1.0251772472762424e+01  1.0419123061740141e+01  1.0251357252812257e+01  1.0436923075613530e+01  1.0333324884258603e+01  1.0130901105328290e+01  1.0464092499520435e+01  1.0390629156523930e+01  1.0482730869369364e+01  1.0409197573975556e+01  1.0481559331394173e+01  1.0464378724299003e+01  1.0439507158606727e+01  1.0479777086876753e+01  1.0464971198689703e+01  1.0474325107624827e+01  1.0442831631790265e+01  1.0442315760417571e+01  1.0471609113264131e+01  1.0430412418532619e+01  1.0470457697416276e+01  1.0431843082422480e+01  1.0469735665141076e+01  1.0437529896471347e+01  1.0458770576225527e+01  1.0417325408406272e+01  1.0399807185534295e+01  1.0445789301400305e+01  1.0406570136946886e+01  1.0439236611889070e+01  1.0341657622247812e+01  1.0438868829421295e+01  1.0345064718804544e+01  1.0436194059832891e+01  1.0385474628328302e+01  1.0452263185156268e+01  1.0376200164449848e+01  1.0484294965110372e+01  1.0468251689092371e+01  1.0424419926907721e+01  1.0513824454679808e+01  1.0528014248245597e+01  1.0573420870917820e+01  1.0532432291446900e+01  1.0562466651322397e+01  1.0598362948036726e+01  1.0535923699068981e+01  1.0565436913999875e+01  1.0532776394484811e+01  1.0591623316854442e+01  1.0520811128655970e+01  1.0550770223107959e+01  1.0598175567102372e+01  1.0491401849832275e+01  1.0520264468467952e+01  1.0453652022548754e+01  1.0413435759227271e+01  1.0479001533689653e+01  1.0433220614389461e+01  1.0343065634783898e+01  1.0432147820418825e+01  1.0331056229037575e+01  1.0439737519310919e+01  1.0359422011828670e+01  1.0436214961181916e+01  1.0362620465316876e+01  1.0297570611328577e+01  1.0422361753138226e+01  1.0363517876429688e+01  1.0401022733905112e+01  1.0271201974528756e+01  1.0375170279258896e+01  1.0225742824868348e+01  1.0343390945713381e+01  1.0245097180978791e+01  1.0322246907704798e+01  1.0133831046902010e+01  1.0322324421639134e+01  1.0150240444373516e+01  1.0041715996955693e+01  1.0166621285323188e+01  1.0370658574597975e+01  1.0235260695162333e+01  1.0375572016858364e+01  1.0267028252039845e+01  1.0162269705002821e+01  1.0369007016695619e+01  1.0271645128890597e+01  1.0380972240008914e+01  1.0196857084894415e+01  1.0399203675624202e+01  1.0295448218978558e+01  1.0176111898655030e+01  1.0421290410286838e+01  1.0327172010287917e+01  1.0431345428035000e+01  1.0327628846861113e+01  1.0265257737311298e+01  1.0437347594577561e+01  1.0327187188169001e+01  1.0439870365579985e+01  1.0347811232181753e+01  1.0439856521989160e+01  1.0373811308977890e+01  1.0430122771042862e+01  1.0355953480223613e+01  1.0308225567880438e+01  1.0421691146939251e+01  1.0355486887113800e+01  1.0415003671848343e+01  1.0278732881560364e+01  1.0403570851445680e+01  1.0267208505571411e+01  1.0384233317149601e+01  1.0301055082310571e+01  1.0375121577461705e+01  1.0224071792415723e+01  1.0387764356919879e+01  1.0283617916688907e+01  1.0187541303367935e+01  1.0302788736620080e+01  8.8624075284545647e+00  9.5135197516483814e+00  9.2032551785695098e+00  9.1626449057929893e+00  8.8012441486314330e+00  8.9688675462231551e+00  9.0847722325464417e+00  9.0242538574215363e+00  9.1844001908603907e+00  9.1111770292108663e+00  9.7124469481031568e+00  8.8302688002985210e+00  9.7985792092604722e+00  9.2842802067130759e+00  8.7175562789338397e+00  8.9444468333909519e+00  1.1250959693924878e+01  1.1007077600094705e+01  1.1517978018447183e+01  1.0630666832646057e+01  1.1301426560411505e+01  1.1140193871272345e+01  1.0642764409007738e+01  1.1021615385145873e+01  1.0279722331688989e+01  1.0836684687588111e+01  1.1010810670642517e+01  1.0189842354925748e+01  1.0523839138379250e+01  1.0052375948786434e+01  9.6562399674794364e+00  9.8530500172328193e+00  9.7893771135592740e+00  9.2438012707423223e+00  9.3600769427307835e+00  9.6667314621728586e+00  1.0244287247388721e+01  1.0312900104916181e+01  9.9684029666604896e+00  1.0252890741247020e+01  9.7822428563122727e+00  1.0101966430646520e+01  1.0018027808352082e+01  1.0352193846415096e+01  1.0134949859534546e+01  9.9423685239569792e+00  1.0844661058913054e+01  1.0890211847648628e+01  1.0713772690219242e+01  1.0951927672245072e+01  1.1025383284398671e+01  1.0970014530847344e+01  1.0710122066992101e+01  8.9672595606931047e+00  9.0584759924962537e+00  8.8676139426151117e+00  9.2617159553998913e+00  9.2849063962151828e+00  8.9546743936678759e+00  8.8654067400014700e+00  1.1001139878731776e+01  1.1034975799256731e+01  1.1075228081259967e+01  1.0946219269829349e+01  1.0941356689685483e+01  1.0780239727473711e+01  1.0873068365277822e+01  9.2274578516867329e+00  9.5147421883284284e+00  9.0991408363454518e+00  9.6390179746029574e+00  8.8905241740825485e+00  9.7160181054945820e+00  1.0103742914865487e+01  9.0848401886005643e+00  8.7810204763277060e+00  8.8825246840039114e+00  9.2345177907763798e+00  9.1879503689607080e+00  9.5682198227705140e+00  9.8412818763353673e+00  9.5596048726843055e+00  9.5671146814708194e+00  9.6888438044328300e+00  9.3042993683282322e+00  9.5759656139962512e+00  9.3961183833148958e+00  9.3463851673430280e+00  1.1321243277072806e+01  1.0968972042387875e+01  1.1307689730454010e+01  1.1259238888073787e+01  1.1343612376651137e+01  1.1307154547846055e+01  1.0929721979539874e+01  1.0891791258277124e+01  1.1004556513508330e+01  1.0782774332655309e+01  1.0932601075577539e+01  1.0756484922649184e+01  1.0173364947211955e+01  9.8616783318688892e+00  1.0075697659430977e+01  1.0138231469605763e+01  1.0284656706033973e+01  1.0225647342066086e+01  9.0922948350903461e+00  9.2875476149836818e+00  9.4585762181472806e+00  9.3704051615694919e+00  8.8243502074118911e+00  9.0751668048318450e+00  9.1294098072580621e+00  9.0409531930830305e+00  8.9903116249388457e+00  9.2277798145054177e+00  9.4193281630661261e+00  9.3615192419266453e+00  9.1306584381312614e+00  9.6234669433955631e+00  1.0023393613263773e+01  9.6510381980709425e+00  9.9571877340686914e+00  9.7195937459829089e+00  9.5580587346237849e+00  9.5325363861793520e+00  1.0493900404727988e+01  1.0681357289706339e+01  1.0873490782479431e+01  1.0277656442275251e+01  1.0106194995406860e+01  1.0442397204210339e+01  1.0835660763768274e+01  9.3882349311672435e+00  9.4424763821591551e+00  9.8217446585462707e+00  9.2213687004966864e+00  9.4130451940325894e+00  9.5469012821390944e+00  9.8420210570279014e+00  9.6063103244705772e+00  9.7081054442586403e+00  9.8016981900538731e+00  9.6906068428891423e+00  9.5532593540486275e+00  9.2747629595777941e+00  9.3632109316481067e+00  1.0084841316876739e+01  1.0591567756336113e+01  1.0508457399582037e+01  1.0287310403354406e+01  1.0053604216217790e+01  9.6313232621381832e+00  9.9524951887362132e+00  1.0967261497724939e+01  1.1285711337440764e+01  1.0474590496518934e+01  1.1354162278873535e+01  1.1322523822979532e+01  1.0907262278165337e+01  9.8983591283051613e+00  1.1085709583573561e+01  1.0459994352830302e+01  1.0893232300797116e+01  1.0770180202174924e+01  1.1180282788418344e+01  1.1253623423711778e+01  1.1070406773978119e+01  1.0922064745678840e+01  1.0655209076601766e+01  1.0865302571025639e+01  1.0483998531097461e+01  1.1194588936859901e+01  1.1045229484058650e+01  1.0732420784215400e+01  9.5303788770721027e+00  9.7108989386484197e+00  9.6815972179021301e+00  9.5675219289684978e+00  9.6356166310097286e+00  9.6479091745991621e+00  9.5408874273592108e+00  9.8734099152380850e+00  1.0019603268076470e+01  1.0129345490601999e+01  9.8488128927027354e+00  1.0076967229407405e+01  1.0136091195658189e+01  9.7673851335783457e+00  1.0332318659701155e+01  1.0359702614481655e+01  1.0332907040669674e+01  1.0277959499044012e+01  1.0338044608534913e+01  1.0278682227783255e+01  1.0267690703988237e+01  1.1053414827965664e+01  1.0983179713965347e+01  1.0887617404705733e+01  1.1152191053879793e+01  1.1102525719143246e+01  1.1242194848083368e+01  1.0378827482637638e+01  1.0008286198143209e+01  1.0210426711888651e+01  1.0465450817013929e+01  1.0239915374252432e+01  1.0547555299553100e+01  9.0916779957038631e+00  9.3483448224683574e+00  9.2324729523903049e+00  9.1995384341022977e+00  9.0353406489153478e+00  8.9382615264232506e+00  9.7932313298631115e+00  9.5483554742730625e+00  9.7051038680078534e+00  9.8219288409384351e+00  9.9387868334018385e+00  9.7492721733795662e+00  9.8648185429187709e+00  9.5082692412830045e+00  9.9019910886496678e+00  9.5887261760132585e+00  9.8942528701392387e+00  9.7275034139758318e+00  1.0074154514248489e+01  1.0151340518331954e+01  9.6993229515667760e+00  1.0573620222804548e+01  1.0570581585794997e+01  1.0514319216866033e+01  1.0710240872440542e+01  1.0272655066097444e+01  1.0405613907789704e+01  1.0422335833088169e+01  1.0505265337065152e+01  1.0655265729059742e+01  9.7716790345698570e+00  9.6232987511710828e+00  9.9683719592940747e+00  9.4517150575548126e+00  9.8095344529868118e+00  9.5180789832033970e+00  1.0028476068859907e+01  1.0147494570468812e+01  9.4111857138435902e+00  1.0176410339428044e+01  1.0134744302623917e+01  1.0257288325161177e+01  1.0112631850061554e+01  1.0122560462578813e+01  1.0090089113565973e+01  1.0231140242296858e+01  1.0307943637918253e+01  1.0133209984960628e+01  1.0822361013209887e+01  1.0931118131814108e+01  1.0845109194309448e+01  1.0924525755039769e+01  1.0938330946318516e+01  1.0872696375926775e+01  1.0783640530694303e+01  9.7958854020123507e+00  9.2542072691458408e+00  9.1115165679434185e+00  9.6135068577584057e+00  1.0071547458289977e+01  1.0626963407335433e+01  1.0088460076529723e+01  1.0052185280287972e+01  9.8700921634108258e+00  9.7072502455722525e+00  1.0142229038399279e+01  1.0281708062728521e+01  1.0159538171771398e+01  9.7327663257008563e+00  1.0052136870378371e+01  1.0106534818885638e+01  9.6669128902318402e+00  1.0357256578409421e+01  1.0417950889705194e+01  9.7522849368295148e+00  9.5570083122079872e+00  1.0610265000907599e+01  1.0249237767034392e+01  1.1192983680836358e+01  9.4786861734267163e+00  9.3479744503042674e+00  1.0262836626514144e+01  1.1238609524326471e+01  1.1088994913296066e+01  9.5308046726767728e+00  9.7653567338734053e+00  9.3789586194061840e+00  9.6915773518982586e+00  9.5013178068408486e+00  9.8256593286771334e+00  9.5976462052062868e+00  9.9620560226361903e+00  9.1611859789695487e+00  9.2289042521647975e+00  9.0185426467369894e+00  9.2284666283361787e+00  9.2415272054712858e+00  9.4093952966172072e+00  9.1126862401775952e+00  9.3959713818522435e+00  1.0366365867156475e+01  1.0501993983453291e+01  1.0762495692893811e+01  1.0006718714596026e+01  1.0034349914046595e+01  9.9772408458814024e+00  1.0518793215688282e+01  1.0217046807000948e+01  1.0123071108491910e+01  1.0011247578497468e+01  1.0204654236436136e+01  1.0127373716296239e+01  9.4905928663803216e+00  9.6883729899807385e+00  1.0028040904928670e+01  1.0140986818915881e+01  9.0900166000096316e+00  9.3286375407672057e+00  8.9903837952027406e+00  9.4756909516042871e+00  9.4104937136481688e+00  9.0379326123603754e+00  9.6013965352982780e+00  8.8015343586942496e+00  9.2811629945058680e+00  9.5429883856294815e+00  9.3979099183783372e+00  9.6224767238826505e+00  9.1120918883190285e+00  9.1656733265220485e+00  9.6042853272521889e+00  9.4302591110397262e+00  1.0851577136205007e+01  1.0662726153728174e+01  1.0874333937320763e+01  1.0662763807780609e+01  1.0868592218782737e+01  1.0935677368292202e+01  1.0730768610122732e+01  1.0962020673294930e+01  9.7957241946070646e+00  9.5919814465447981e+00  9.5030279408071632e+00  9.8944992196580195e+00  9.5689632472165833e+00  9.9466701879855339e+00  1.0192439277963219e+01  1.0142474383445760e+01  1.1397394946995298e+01  1.1591380925954766e+01  1.1633787131471024e+01  1.1381607881696782e+01  1.1273398301366493e+01  1.1285188445097194e+01  1.1387588694135959e+01  1.0978979229340563e+01  1.1291053009072760e+01  1.0976069187289054e+01  1.1340845989854834e+01  1.0716236383970157e+01  1.0622413046109557e+01  1.0690636803619114e+01  1.0045952796814058e+01  9.9635354760150889e+00  9.7057351801400316e+00  1.0211501112225891e+01  1.0146542788740927e+01  9.9783190815311791e+00  9.6417534956055970e+00  1.0662936669963077e+01  1.0148000984035651e+01  1.0731493533436982e+01  1.0305373668874850e+01  1.0585072646928424e+01  1.0289233304896999e+01  1.0503544900946805e+01  9.5978649609594768e+00  9.7127925058720432e+00  9.8638221371310006e+00  9.2424020194953425e+00  9.0083303004942632e+00  9.6102242298267804e+00  9.9526868065997931e+00  9.0184160802169000e+00  9.0464222372836876e+00  9.0573890495283536e+00  9.3985189629926094e+00  9.4353907767768561e+00  9.1821056753186259e+00  9.3781633271814488e+00  9.1497152116298377e+00  9.0215326425667470e+00  8.9082779324669978e+00  9.1001518098963388e+00  9.4892493121640769e+00  9.6861887566604512e+00  9.0757649324672656e+00  1.0982640935476027e+01  1.0996167084586050e+01  1.0902066330824592e+01  1.1105061397866647e+01  1.1028661225939224e+01  1.0844497014917732e+01  1.0924528049468924e+01  9.8387241604935962e+00  9.2516282329770974e+00  9.4312433206995987e+00  9.6990707761718795e+00  1.0271169875011722e+01  1.0052181144055101e+01  1.0205541588882705e+01  1.0150404490571264e+01  1.0829256608711809e+01  1.0846738089967712e+01  1.0968829452397081e+01  1.0710571756341537e+01  1.0770788916492945e+01  1.0694906994324441e+01  1.0885026120159454e+01  1.0994032741646587e+01  9.9416802414458783e+00  9.7635956811815579e+00  9.7462662766354757e+00  9.9857117643975695e+00  9.9330488399508319e+00  1.0039527857214621e+01  9.9027192900480259e+00  9.9009954826918687e+00  9.5724496637800538e+00  9.1299719128482852e+00  9.2476624166689056e+00  9.6664294921852605e+00  1.0109323351789428e+01  9.9533250821348602e+00  9.9169793977892837e+00  9.7776368816439305e+00  1.1202451216215005e+01  1.1344402196560738e+01  1.1207467365647268e+01  1.1319262909833375e+01  1.1215074795877209e+01  1.0907924338672291e+01  1.1020657380266810e+01  1.0294919004542352e+01  9.8586619584618571e+00  9.5350652831080751e+00  1.0330941614534561e+01  1.0166574221859824e+01  1.0410208971058220e+01  9.8415198807126636e+00  9.8039966113984089e+00  9.3535372363165692e+00  9.4247890166024586e+00  9.7072683902721479e+00  1.0212177346618079e+01  1.0106892724539300e+01  9.7904744059002322e+00  1.1262777762416464e+01  1.1301412698646816e+01  1.1055060220676001e+01  1.1228590878690094e+01  1.1070322341067422e+01  1.1148435295372037e+01  1.1071335725323207e+01  1.0275753512021483e+01  1.0447882173464809e+01  1.0308219745118986e+01  1.0646743956021423e+01  1.0503143565894964e+01  9.6600969529657164e+00  9.7429970084424173e+00  9.4462206943881668e+00  1.0915004443599031e+01  1.1056203077740534e+01  1.0973007244607217e+01  1.0992288120036161e+01  1.0789150922297827e+01  1.0772086076734126e+01  1.0776072756370048e+01  1.0707761455695254e+01  9.6521411625818558e+00  9.5872994025126950e+00  9.7429119137601443e+00  9.8049491699680669e+00  1.0273311053583788e+01  1.0250742195188202e+01  9.8173127784061478e+00  9.7435017017314447e+00  9.0302934947057043e+00  8.9803683373507575e+00  8.8480288328227257e+00  9.0143682071470241e+00  9.3296537054914168e+00  9.4738555739524006e+00  8.8876769673232925e+00  9.1336030477370418e+00  9.3729373733692647e+00  9.7220734488505975e+00  9.1465351928074483e+00  9.8321358381931603e+00  9.7396959854059837e+00  9.0602458554179410e+00  1.0110827896698121e+01  1.0233130450883079e+01  9.9817471602455807e+00  1.0258812483580172e+01  1.0151279856196586e+01  9.8298185285868858e+00  1.0299033023223432e+01  1.0374134046642727e+01  1.0587548264525660e+01  1.0165513367206602e+01  1.0026131847454945e+01  1.0395585244736775e+01  9.5942251773843417e+00  9.8461117024261817e+00  9.4183116265291940e+00  9.8520377996499828e+00  9.6034130322890796e+00  9.3998520714075386e+00  1.0280817266301298e+01  1.0423643002940510e+01  9.6878595262375207e+00  1.0468413997226946e+01  9.7848317933874558e+00  1.0105103084044961e+01  1.0030198620557684e+01  8.9286587418131074e+00  8.8592460187814073e+00  8.9386156842262690e+00  8.8681683782284111e+00  9.8058610560034829e+00  8.9339770075733842e+00  9.5902823867282443e+00  1.1089350324007562e+01  1.1087056708528728e+01  1.0540203660746188e+01  1.1073201411947565e+01  1.0624732559318200e+01  1.1004835177743418e+01  1.0952263377648473e+01  9.9705844614699970e+00  1.0468713596463155e+01  9.7209708359714462e+00  1.0185098784309186e+01  1.0451570521457217e+01  1.0209110045254933e+01  1.0505120586753879e+01  1.0892984907555565e+01  1.1150739946360041e+01  1.1241013077270640e+01  1.0895843238257433e+01  1.0905959623056976e+01  1.0531213726952924e+01  1.0467543959198071e+01  9.6657145709584267e+00  9.3636503093162062e+00  1.0031897805497737e+01  9.2002775304640920e+00  9.9920966466547565e+00  9.8135208566286227e+00  9.4059784233108683e+00  1.1036956330366179e+01  1.0932599408535392e+01  1.1285411423234523e+01  1.0583652430359257e+01  1.1263366873349600e+01  1.1070989252279313e+01  1.0614537924500452e+01  9.2970928743363164e+00  1.0180749496855245e+01  9.6859084622311720e+00  9.5935766879575990e+00  9.1086639767027240e+00  8.9653845846194233e+00  9.1035275787732743e+00  1.1012336717113358e+01  1.0993526419037350e+01  1.1235906955488932e+01  1.0814206788523810e+01  1.1171767669034335e+01  1.0852144831088580e+01  9.3141336341941638e+00  9.6542257636691868e+00  9.640380642