<?xml version="1.0"?>
<VTKFile type="UnstructuredGrid"  version="0.1"  >
<UnstructuredGrid>
<Piece  NumberOfPoints="1416" NumberOfCells="2750">
<Points>
<DataArray  type="Float64"  NumberOfComponents="3"  format="ascii">10000 0 0  9969.173337331546 784.5909572750695 0  9440.811062854247 337.8086441165926 0  9969.173337331289 -784.5909572783328 0  9119.461671696214 -436.047325602827 0  0 10000 0  784.5909572783328 9969.173337331289 0  436.0473256028242 9119.461671696214 0  -784.5909572750695 9969.173337331546 0  -337.8086441165958 9440.811062854247 0  -10000 0 0  -9969.173337331289 784.5909572783328 0  -9119.461671696214 436.0473256028198 0  -9969.173337331546 -784.5909572750695 0  -9440.811062854247 -337.8086441165943 0  0 -10000 0  -784.5909572783328 -9969.173337331289 0  -436.0473256028237 -9119.461671696215 0  784.5909572750695 -9969.173337331546 0  337.8086441165926 -9440.811062854247 0  1000 0 0  825.5112685286344 233.2965221726817 0  1210.652051555102 178.7580587220347 0  758.3105164940762 -28.48526495347746 0  1257.782871779572 -45.21674913664203 0  853.1788281180126 -255.1195435303564 0  1122.147561214101 -201.3091483794531 0  0 1000 0  -224.5942532759738 814.142362917265 0  28.69055186178868 757.9412270694447 0  -193.2123325114539 1112.182883894174 0  179.7197598806582 1215.220055532552 0  249.331013302979 860.3118401498294 0  -37.93559097040777 1253.495422595633 0  -1000 0 0  -824.851195817888 -232.1783906338463 0  -1210.595922923236 -178.6629795095487 0  -757.4575350892064 29.53393923004192 0  -1257.504710586107 45.16695969320045 0  -851.7633041405784 248.1772228548502 0  -1120.885945661195 200.0563625481669 0  0 -1000 0  249.0340813110638 -842.6509245101993 0  180.0207135594895 -1211.849580489497 0  18.33127838206231 -719.7561862243336 0  -45.09404287730242 -1257.692498219919 0  -252.413804548122 -852.0675834927048 0  -200.9036788868213 -1120.94680153162 0  2000 0 0  1712.325186787277 -225.5688316983879 0  1949.292517575665 -404.0263120746235 0  1758.092477153796 22.27922893435602 0  2220.4090632581 -278.1657736385001 0  2264.940937824128 12.17221832991 0  2022.901005636987 245.209440425862 0  0 2000 0  301.9748726397239 1740.654411212139 0  1.120723757020302e-12 1745.628282521672 0  388.8436927040806 1995.749174184361 0  -265.4266168243358 2269.848489623402 0  -269.5511398733495 1970.956450977053 0  14.70097338908518 2279.104059422062 0  278.8454224092475 2226.372287316351 0  -2000 0 0  -1712.325186787277 225.5688316983877 0  -1949.292517575666 404.026312074623 0  -1758.092477153796 -22.27922893435661 0  -2220.4090632581 278.1657736385 0  -2264.940937824128 -12.1722183299102 0  -2022.901005636987 -245.2094404258624 0  0 -2000 0  -225.5688316983879 -1712.325186787277 0  -404.0263120746235 -1949.292517575665 0  22.17353424893216 -1758.317218185472 0  -278.1657736385001 -2220.4090632581 0  12.17221832991003 -2264.940937824128 0  245.209440425862 -2022.901005636987 0  9876.883405952116 1564.344650397643 0  9413.741379249825 893.2779112941004 0  9723.699203978225 2334.453638552975 0  9281.686298197614 1862.981019420672 0  8978.354407498971 1302.212327038938 0  9510.565162954143 3090.169943741452 0  9171.616356661538 2425.460729511194 0  9238.7953251169 3826.834323641162 0  8786.327444180986 2855.609134985008 0  8910.065241889364 4539.904997384312 0  8576.420325493971 4088.764306853787 0  8462.074319507847 3512.480585282223 0  8526.40164354859 5224.985647146975 0  8380.046298293893 4548.240288757754 0  8090.169943758854 5877.852522911823 0  7683.770966481169 5298.80797610165 0  7874.660194180307 4750.86281684807 0  7604.059656011831 6494.480483288346 0  7228.811045347766 5749.151035153302 0  7071.067811878895 7071.067811852055 0  6882.490700411468 6265.549259424126 0  6494.480483314509 7604.059655989487 0  6558.565613988438 6766.215058556128 0  5877.852522936711 8090.169943740771 0  5735.388635244923 7423.195460774175 0  5981.697728245949 6848.506665974658 0  5224.985647170473 8526.401643534191 0  5307.257413765717 7837.676472666109 0  4539.904997404682 8910.065241878983 0  4613.173854048643 7930.353439924153 0  3826.834323658716 9238.79532510963 0  3877.010908226574 8367.304709936669 0  3090.169943755497 9510.565162949579 0  3395.404259564986 8853.279745804064 0  2334.4536385629 9723.699203975842 0  2848.849836324876 8831.763646725167 0  1564.34465040468 9876.883405951001 0  1666.047411844783 9306.350461236803 0  2135.463838140692 8932.199249345211 0  1138.519892287582 9404.047671358992 0  -1564.344650397643 9876.883405952116 0  -893.2779112941062 9413.741379249825 0  -2334.453638552975 9723.699203978225 0  -1862.981019420678 9281.686298197616 0  -1302.212327038943 8978.354407498971 0  -3090.169943741452 9510.565162954143 0  -2425.460729511197 9171.61635666154 0  -3826.834323641162 9238.7953251169 0  -2855.609134985011 8786.32744418099 0  -4539.904997384312 8910.065241889364 0  -4088.764306853793 8576.420325493971 0  -3512.480585282231 8462.074319507852 0  -5224.985647146975 8526.40164354859 0  -4548.240288757759 8380.046298293893 0  -5877.852522911823 8090.169943758854 0  -5298.807976101652 7683.770966481165 0  -4750.862816848074 7874.660194180306 0  -6494.480483288346 7604.059656011831 0  -5749.151035153306 7228.811045347762 0  -7071.067811852055 7071.067811878895 0  -6265.549259424123 6882.490700411468 0  -7604.059655989487 6494.480483314509 0  -6766.215058556127 6558.565613988435 0  -8090.169943740771 5877.852522936711 0  -7423.195460774181 5735.388635244917 0  -6848.506665974661 5981.697728245946 0  -8526.401643534191 5224.985647170473 0  -7837.676472666112 5307.257413765715 0  -8910.065241878983 4539.904997404682 0  -7930.353439924156 4613.173854048636 0  -9238.79532510963 3826.834323658716 0  -8367.304709936674 3877.010908226573 0  -9510.565162949579 3090.169943755497 0  -8853.279745804064 3395.404259564985 0  -9723.699203975842 2334.4536385629 0  -8831.763646725163 2848.849836324873 0  -9876.883405951001 1564.34465040468 0  -9306.350461236801 1666.047411844779 0  -8932.199249345213 2135.463838140684 0  -9404.047671358992 1138.519892287579 0  -9876.883405952116 -1564.344650397643 0  -9413.741379249826 -893.2779112941001 0  -9723.699203978225 -2334.453638552975 0  -9281.686298197616 -1862.981019420666 0  -8978.354407498975 -1302.212327038933 0  -9510.565162954143 -3090.169943741452 0  -9171.61635666154 -2425.460729511192 0  -9238.7953251169 -3826.834323641162 0  -8786.32744418099 -2855.609134985002 0  -8910.065241889364 -4539.904997384312 0  -8576.420325493969 -4088.764306853795 0  -8462.074319507856 -3512.480585282229 0  -8526.40164354859 -5224.985647146975 0  -8380.046298293893 -4548.240288757762 0  -8090.169943758854 -5877.852522911823 0  -7683.770966481169 -5298.807976101652 0  -7874.660194180307 -4750.862816848075 0  -7604.059656011831 -6494.480483288346 0  -7228.811045347765 -5749.151035153303 0  -7071.067811878895 -7071.067811852055 0  -6882.490700411463 -6265.549259424131 0  -6494.480483314509 -7604.059655989487 0  -6558.565613988436 -6766.215058556136 0  -5877.852522936711 -8090.169943740771 0  -5735.388635244922 -7423.195460774175 0  -5981.697728245952 -6848.506665974656 0  -5224.985647170473 -8526.401643534191 0  -5307.257413765717 -7837.676472666109 0  -4539.904997404682 -8910.065241878983 0  -4613.173854048643 -7930.353439924151 0  -3826.834323658716 -9238.79532510963 0  -3877.010908226574 -8367.304709936669 0  -3090.169943755497 -9510.565162949579 0  -3395.404259564985 -8853.279745804059 0  -2334.4536385629 -9723.699203975842 0  -2848.849836324873 -8831.763646725161 0  -1564.34465040468 -9876.883405951001 0  -1666.047411844782 -9306.350461236796 0  -2135.463838140686 -8932.199249345209 0  -1138.519892287581 -9404.047671358991 0  1564.344650397643 -9876.883405952116 0  893.2779112940983 -9413.741379249826 0  2334.453638552975 -9723.699203978225 0  1862.981019420666 -9281.686298197616 0  1302.212327038932 -8978.354407498975 0  3090.169943741452 -9510.565162954143 0  2425.460729511192 -9171.61635666154 0  3826.834323641162 -9238.7953251169 0  2855.609134985002 -8786.32744418099 0  4539.904997384312 -8910.065241889364 0  4088.764306853795 -8576.420325493969 0  3512.480585282229 -8462.074319507856 0  5224.985647146975 -8526.40164354859 0  4548.240288757762 -8380.046298293893 0  5877.852522911823 -8090.169943758854 0  5298.807976101651 -7683.770966481169 0  4750.862816848074 -7874.660194180306 0  6494.480483288346 -7604.059656011831 0  5749.151035153302 -7228.811045347768 0  7071.067811852055 -7071.067811878895 0  6265.54925942412 -6882.490700411468 0  7604.059655989487 -6494.480483314509 0  6766.215058556126 -6558.56561398844 0  8090.169943740771 -5877.852522936711 0  7423.195460774175 -5735.388635244922 0  6848.506665974652 -5981.697728245953 0  8526.401643534191 -5224.985647170473 0  7837.676472666108 -5307.257413765719 0  8910.065241878983 -4539.904997404682 0  7930.353439924147 -4613.173854048646 0  9238.79532510963 -3826.834323658716 0  8367.304709936667 -3877.010908226576 0  9510.565162949579 -3090.169943755497 0  8853.279745804059 -3395.404259564986 0  9723.699203975842 -2334.4536385629 0  8831.76364672516 -2848.849836324872 0  9876.883405951001 -1564.34465040468 0  9306.350461236796 -1666.047411844782 0  8932.199249345209 -2135.463838140685 0  9404.047671358989 -1138.519892287582 0  3890.561977844704 -3980.209838863507 0  3378.112472111499 -3620.467011831335 0  3865.652261003032 -3450.186185358944 0  3413.999318598406 -4024.335624504108 0  4503.212714161729 -3720.115308817993 0  4398.512117453444 -4241.925396324142 0  3572.533128876644 -4426.573998554646 0  3995.622341410154 -4399.580205031658 0  -3980.209838863506 -3890.561977844704 0  -3620.467011831334 -3378.112472111499 0  -3450.186185358944 -3865.652261003033 0  -4024.335624504107 -3413.999318598408 0  -3720.115308817994 -4503.21271416173 0  -4241.925396324144 -4398.512117453445 0  -4426.573998554645 -3572.533128876645 0  -4399.580205031658 -3995.622341410156 0  3980.209838863507 3890.561977844706 0  3620.467011831334 3378.
[...]
<PointData  Scalars="f_29960"> 
<DataArray  type="Float64"  Name="f_29960"  format="ascii">9.5477740977450836e+00  9.0155934416485035e+00  8.7833830788517933e+00  9.6500569142725112e+00  1.0083785682938430e+01  1.0360863239689619e+01  1.0487969029445946e+01  1.0234321674728372e+01  1.0387760065254477e+01  1.0401037220504953e+01  1.0881398835910131e+01  1.0367936756564353e+01  1.1105728361840708e+01  1.0775710397738495e+01  1.1084471727470900e+01  9.8938266625586433e+00  1.0148716174147483e+01  9.8449100228052480e+00  9.6614650718505590e+00  9.5063753272959897e+00  9.0229370519050267e+00  9.2286028131064430e+00  8.9064230077413882e+00  9.1203178364815809e+00  8.9603383735247348e+00  9.0541939520687347e+00  8.9905790157738128e+00  1.0773689847730274e+01  1.0820662123070058e+01  1.0504235699008333e+01  1.1109443497856537e+01  1.0916701419734149e+01  1.0457261044726152e+01  1.1162379137706044e+01  1.0089556890988089e+01  9.4705388162512172e+00  1.0074674688209605e+01  9.9040311062573281e+00  1.0408493907192058e+01  1.0497659532668418e+01  1.0614402976770942e+01  9.7332146667940620e+00  9.5631595550864876e+00  9.9587468393340348e+00  9.4668796871624057e+00  9.8830341711777940e+00  9.5528719330766290e+00  9.7405496618302756e+00  8.8656724823451469e+00  8.9121289697350665e+00  9.2212656600851375e+00  8.9438276238488879e+00  9.4597226182165706e+00  9.0732906108048841e+00  8.9411702533153683e+00  1.1024789396079440e+01  1.1153846747345789e+01  1.1407175477269039e+01  1.0234682534704577e+01  1.0942969657491808e+01  1.1087538965730436e+01  1.0855066448768655e+01  1.0281233790455044e+01  1.0836254648871558e+01  1.1023294896886705e+01  1.1184430212369573e+01  1.0569742969501030e+01  1.1169235486185885e+01  1.1123493315030096e+01  1.0105599142439988e+01  1.0008473636075845e+01  1.0008085803144942e+01  9.9204481649748733e+00  1.0098530080211875e+01  9.9173962049461775e+00  9.8016321201321119e+00  9.9135427336961062e+00  9.1146347942103496e+00  8.4848415185727362e+00  1.0376001318202421e+01  9.6637405293399627e+00  9.0313745323202852e+00  1.0601027752819746e+01  1.0478086473555711e+01  1.0375610770408215e+01  1.0699008908832711e+01  1.0536369192237876e+01  1.0520846573502446e+01  1.0505261138832209e+01  1.0056153069997450e+01  1.0425545393972145e+01  9.7594168552084817e+00  9.2682947527075044e+00  1.0003466734763037e+01  1.0458705123468738e+01  9.8045904753182054e+00  1.0741015283589679e+01  1.0699348194194675e+01  1.0693394738244503e+01  1.0910369896944283e+01  1.0413538700463500e+01  1.0654137380685604e+01  1.0989608444601334e+01  1.0024552946241929e+01  1.0170755066679108e+01  1.0176390066911953e+01  9.5998055918904672e+00  1.0461003936211469e+01  1.0007238184403914e+01  1.0349475217351074e+01  1.0322858908625141e+01  1.0350366258230492e+01  1.0035462206844619e+01  1.0478203360878025e+01  1.0206780708041780e+01  9.7794262508866279e+00  1.0329252195220826e+01  1.0327844252663821e+01  1.0424069500818300e+01  1.0298867703571513e+01  1.0333348182732294e+01  1.0312135865772088e+01  1.0317899287570018e+01  1.0328724798293990e+01  1.0361035264572863e+01  1.0367272891875078e+01  1.0427073193331029e+01  1.0367826119310608e+01  1.0344923298615756e+01  1.0431943400486118e+01  1.0392453028818684e+01  1.0187040467192764e+01  1.0101856874948034e+01  1.0307159940486809e+01  9.9837327716757578e+00  9.8207756902132584e+00  1.0075244779132801e+01  9.8153711233252334e+00  1.0488712827512721e+01  1.0004105789436410e+01  1.0452191745966262e+01  1.0386931451791185e+01  1.0143944665806233e+01  9.9992413343712379e+00  1.0060110393391298e+01  1.0073711819884451e+01  9.6101906655910589e+00  1.0412583672484098e+01  1.0050045702298407e+01  9.9868929226332011e+00  9.9608465975959657e+00  9.7963587141262085e+00  9.4623392039009477e+00  9.7210160226795708e+00  9.4311328907798462e+00  9.5311155461251929e+00  9.8763379282197477e+00  1.0575331217576917e+01  1.0754822851458627e+01  1.0666938809507647e+01  1.0674825236791452e+01  1.0380726855891854e+01  1.0670146096765457e+01  1.0795266348326388e+01  1.0713038899847756e+01  1.0769249456182301e+01  1.0857674954887614e+01  1.0981125052740040e+01  1.0882001965541640e+01  1.0509819810264835e+01  1.0962368719869271e+01  9.5876782855326077e+00  9.4040559317908716e+00  1.0631224359955787e+01  9.4849001873073426e+00  8.7885243344428012e+00  9.5331355587789250e+00  8.9197013388133453e+00  9.7695862254593671e+00  9.0409750135200930e+00  1.0145797521027259e+01  9.7989226010701547e+00  9.2085901892180431e+00  9.6525153078285708e+00  9.7910719176411547e+00  9.3329266393740369e+00  9.0096076855970910e+00  9.4683931320299664e+00  9.0485878963558033e+00  9.3545570040631709e+00  9.0494542911945874e+00  9.2717336765096583e+00  8.6166365388372981e+00  9.7743912478550392e+00  9.1886067448000848e+00  8.8588186483156317e+00  9.6151679895101285e+00  9.3520031650693802e+00  9.2702704396668736e+00  9.6632913675143737e+00  9.0853737893692159e+00  9.1657489703606849e+00  9.6838975536990759e+00  9.2043650696389410e+00  9.7100786105519621e+00  8.9297118854594473e+00  9.9849571969683151e+00  9.5833080949739795e+00  9.1043247978707491e+00  9.8640980271550909e+00  9.6952180708692879e+00  9.8653027201417540e+00  9.6128111155926508e+00  9.6293305814343118e+00  9.7380721613178469e+00  9.4372702137161770e+00  9.5503916138915717e+00  9.1985742672479311e+00  9.4351650475267768e+00  9.0905939214292282e+00  9.5567717426630203e+00  9.0502908186414341e+00  9.1617222418396960e+00  9.3931428630404934e+00  9.0544585117970655e+00  9.4074430246989422e+00  8.9408540285035478e+00  9.8452484386666388e+00  9.4200657208754475e+00  1.0041502195960417e+01  9.7734294612508705e+00  9.8887063427652997e+00  9.5545385099179629e+00  9.6830248507726644e+00  9.1804202424198689e+00  8.9081282375544095e+00  9.2324652114580559e+00  8.8958927510187191e+00  9.4399803919825551e+00  9.1632535694139268e+00  9.4061892887245921e+00  8.8924461305309084e+00  9.6425826062985500e+00  9.0377345455985356e+00  9.2685608073908732e+00  9.3104684697020481e+00  9.2115001849756180e+00  9.7667415638542572e+00  9.0099922924760385e+00  9.9444602190518943e+00  9.2945638507017243e+00  8.9621767420180767e+00  9.0777634705227328e+00  1.1575613949346213e+01  1.1298862690095589e+01  1.1569414137337462e+01  1.0853658447775722e+01  1.1131180960261418e+01  1.1143495874589179e+01  1.1350739436026158e+01  1.1630207927865166e+01  1.0238122275958988e+01  1.1232816324120643e+01  1.0893060069611652e+01  1.0131427829246203e+01  1.0134139794339085e+01  1.0214151284813898e+01  9.6272279468507325e+00  1.0289110589866455e+01  1.0048505034076367e+01  9.0794307105359717e+00  9.0365562924591867e+00  9.9312549561946089e+00  1.0370077456472794e+01  1.0497469434010158e+01  1.0122162876103403e+01  1.0387102632605423e+01  9.6915418634020671e+00  1.0503367394189448e+01  9.9309080416744511e+00  1.0273012810331732e+01  1.0392251335910247e+01  1.0016174496396825e+01  1.1101816946194843e+01  1.0812366705799977e+01  1.0702926580353301e+01  1.0899663383810610e+01  1.0934666387195131e+01  1.1048070899486330e+01  1.0911737967426083e+01  8.9398492885135958e+00  9.1895889841493474e+00  8.9823968809262666e+00  9.1982129157044525e+00  9.1471790455108604e+00  9.0302083606319421e+00  9.0461809588920730e+00  1.1116867509004107e+01  1.1317786940350539e+01  1.1196301685911850e+01  1.0909441101460427e+01  1.0869583053719273e+01  1.0645650062127981e+01  1.0856489875837079e+01  9.1530345870115575e+00  9.2232914414210736e+00  9.1796652576375024e+00  9.2207186306021161e+00  8.5372747240522706e+00  9.5858038208354905e+00  1.0563641974604025e+01  9.1297503877918285e+00  8.9851447976420342e+00  8.8953362359866990e+00  9.0374149126078862e+00  9.1631242485017186e+00  9.5966514410009278e+00  9.6664783722946339e+00  9.3615339904337898e+00  9.6781049861870905e+00  9.7060954596904452e+00  9.4504953227893971e+00  9.6546650698163319e+00  9.4805771779635322e+00  9.3118945198693623e+00  1.1302396159161734e+01  1.1186923993456922e+01  1.1212624786822870e+01  1.1206367638396911e+01  1.1216821628952845e+01  1.1209759932364136e+01  1.1353864550941243e+01  1.0850793136161894e+01  1.1119456043503325e+01  1.1217096632312501e+01  1.1140280268125023e+01  1.0991281676121156e+01  1.0054996186307628e+01  9.7904264722307719e+00  9.8244302830717967e+00  1.0224777125333926e+01  1.0180546411071877e+01  1.0102803264393955e+01  8.9958969183308604e+00  9.2667197639712420e+00  9.4441997955757735e+00  9.1628124281217218e+00  8.8920814087502791e+00  9.2646015826748069e+00  9.0208515449469875e+00  8.9699519145931426e+00  9.3768225556265108e+00  9.0670448580224381e+00  9.1034160690547452e+00  9.5230806489733304e+00  9.6356156679342195e+00  9.4267296782184644e+00  1.0004202095058584e+01  9.9122900396605065e+00  9.5897128957217568e+00  8.9051467783715577e+00  9.1223129056101335e+00  1.0119253154228765e+01  1.0335371067288957e+01  1.0600755443237729e+01  1.1141533164068454e+01  9.7148666945491531e+00  9.2765250515937705e+00  1.0479739933253564e+01  1.1126214764898940e+01  8.9784495705631269e+00  9.1360102104399648e+00  9.5060404465068977e+00  9.1433640660873703e+00  9.3671652477518830e+00  9.0412015370329009e+00  9.6487562264061406e+00  9.8533831852338256e+00  9.7575182951147585e+00  1.0095410771789835e+01  1.0136704685486329e+01  9.7178004913679885e+00  8.9240620129427395e+00  9.1823563948478775e+00  1.0153676247158433e+01  1.0570785478135377e+01  1.0593906065255313e+01  1.0076566114909003e+01  9.8587239942890275e+00  9.6726050050146295e+00  9.9517946326096567e+00  1.1125737184555719e+01  1.1300900365480254e+01  1.0578059929275463e+01  1.1104449808029107e+01  1.1000042477084801e+01  1.1233912685936641e+01  9.8949519964181771e+00  1.0719147942431077e+01  1.0572767009078689e+01  1.0440468835854865e+01  1.1065315682060607e+01  1.1053104282840708e+01  1.1113652746657998e+01  1.1022297225275329e+01  1.1277440924552476e+01  1.1408482869047988e+01  1.1236133699108704e+01  1.1160479462175219e+01  1.1057653488852230e+01  1.1141351505843309e+01  1.1206043588227105e+01  9.2644632076750160e+00  8.9283900211667255e+00  8.9946605953304122e+00  9.1081944507553203e+00  9.7111848273517261e+00  9.7886860224986982e+00  9.8069687914736168e+00  9.2364024242559264e+00  9.9732223672934843e+00  9.2477385058836017e+00  1.0488756598820753e+01  1.0250903163550742e+01  1.0291502624182950e+01  9.1766199879468164e+00  1.0408574347841851e+01  1.0351287907571756e+01  1.0341860641712961e+01  1.0177911348853220e+01  1.0257495568815346e+01  1.0228270477482576e+01  1.0336443087027027e+01  1.0824940166569428e+01  1.0902501391629359e+01  1.0683627465061312e+01  1.0947866463375604e+01  1.1031474163337775e+01  1.1109854899346736e+01  1.0032962506576713e+01  1.0097045948112280e+01  9.9393134481565397e+00  1.0711706951855907e+01  9.8811528145637535e+00  1.0346927222959714e+01  8.8559350992959320e+00  9.0426003649212721e+00  9.0209269255154911e+00  9.1104506616213889e+00  8.9068819670141632e+00  9.1093528428180921e+00  9.9168726590095133e+00  9.3545213824344486e+00  9.5026900658118585e+00  1.0080533770775986e+01  1.0058998094163583e+01  1.0120129012631800e+01  9.5251830413746923e+00  9.1945561983757891e+00  8.9287269916716845e+00  9.6370733553162431e+00  9.8459645797146624e+00  9.8013299926181787e+00  9.8729925043516094e+00  9.3357281956611331e+00  9.9017970582696631e+00  1.1256358837015380e+01  1.1004220756642878e+01  1.1540738601171503e+01  1.0858699668315147e+01  1.0196747322218418e+01  1.0723494451505442e+01  1.0733081818417546e+01  1.1231511504978783e+01  1.0926527318377897e+01  9.3092904927002422e+00  8.9474608951248094e+00  9.5202792471395288e+00  9.3166717925948497e+00  9.6280726801305061e+00  9.6739482759486357e+00  9.3852626266537591e+00  9.4457245900250317e+00  9.4657842622712742e+00  9.7834792364938696e+00  9.9821300011510381e+00  9.3717436222620361e+00  1.0361536947278182e+01  9.6951502348381169e+00  1.0321135058505918e+01  9.4130898571444082e+00  9.5997606656171897e+00  1.0790990371258729e+01  1.0648564157079406e+01  1.0996154461464348e+01  1.0986732723159648e+01  1.0702154593369908e+01  1.0761394883286211e+01  1.0866821181159775e+01  1.0799584006922348e+01  9.9337568167457331e+00  9.2040218599884760e+00  8.9227006267902933e+00  9.1537092446560511e+00  1.0263308531931772e+01  1.1066638685394064e+01  1.0595521832875797e+01  9.9030273674331077e+00  9.9613908321572939e+00  9.9303952684781898e+00  1.0118045218807126e+01  1.0063021170971789e+01  1.0109239536795794e+01  9.4871109483743616e+00  1.0003982784807320e+01  1.0133170411706008e+01  9.6403757557275238e+00  1.0466972342875135e+01  1.0517274277743050e+01  9.4854174539129250e+00  9.4035963658410342e+00  1.0851698076680375e+01  1.0253074255022360e+01  1.0951248371184285e+01  8.9739182199799146e+00  9.0956370825271975e+00  1.0408498105718362e+01  1.1129761715271780e+01  1.1282467239507648e+01  9.8661571471916965e+00  9.4152811947624322e+00  9.0622539842526297e+00  9.5601707500685755e+00  9.5770614341610099e+00  1.0182017424275852e+01  9.6359538225709684e+00  9.9376375946570139e+00  9.4752412621281685e+00  9.0861602333037741e+00  8.9534700259765447e+00  9.2590742241112665e+00  9.3532195422722815e+00  9.2795505138041339e+00  9.3720864978933989e+00  9.5947863007540342e+00  1.0543564455830634e+01  1.0718414234242038e+01  1.0756981803745834e+01  1.0041234174055427e+01  9.9728276528412412e+00  9.2452521585787046e+00  1.0768264553954255e+01  1.0565933766313686e+01  1.0814148923122888e+01  9.3713164236919706e+00  1.0677703236328579e+01  9.8910483409113663e+00  9.1507004781000916e+00  9.9292754376057264e+00  1.1247948714454708e+01  1.0136305847732253e+01  9.0546833408120460e+00  9.0446988304456895e+00  8.9534245852687704e+00  8.8928335036964850e+00  9.6758188320097958e+00  8.8791456760271039e+00  9.4000700510563977e+00  9.0089888267985820e+00  9.6066457244119583e+00  8.8999750922523386e+00  9.0317534538250257e+00  9.2798826031207344e+00  9.1384032311059702e+00  8.9808311435388362e+00  9.5342820438485525e+00  9.3309371375893768e+00  1.0961512173937979e+01  1.0832057089645224e+01  1.1013313339194235e+01  1.0470417457986589e+01  1.0886316524357149e+01  1.0934617075224091e+01  1.1243563865721013e+01  1.0933979784736573e+01  9.3129634748648495e+00  9.2749332941551650e+00  9.1276954245007431e+00  9.6581833037506808e+00  9.0764151648861837e+00  9.4697874782410860e+00  9.9272018029327072e+00  9.7982945795012064e+00  1.1137465485273488e+01  1.1301220179323318e+01  1.1425765395942898e+01  1.1184824894928546e+01  1.1256492179655453e+01  1.0981627548935782e+01  1.1298259126178705e+01  1.0934047986857099e+01  1.1571846133999440e+01  1.0793576090606118e+01  1.1575148819525564e+01  1.0462648225597132e+01  1.0299937171455575e+01  1.0782682622400825e+01  9.9635670504949658e+00  9.7367905869209359e+00  9.5949616977706178e+00  1.0109803443450435e+01  1.0109942797991899e+01  9.7857197088570054e+00  9.7511404107093664e+00  1.0607910721367954e+01  1.0087614972470684e+01  1.0426780950520227e+01  1.0422060580768047e+01  1.0414477883266606e+01  9.9708356231256499e+00  1.0397239998692832e+01  9.6686225559913002e+00  9.7935434603526517e+00  9.9671648801940886e+00  9.1010756402626374e+00  9.0543328677409143e+00  9.6923508665405240e+00  1.0062319435740548e+01  9.0117012155465748e+00  9.0262030280708512e+00  9.0838589565433043e+00  9.2434932053226131e+00  9.1734691359937983e+00  9.1133876427448488e+00  9.6727278752686097e+00  9.3614874469960832e+00  8.9397651610117936e+00  9.0022477331828537e+00  9.1382959797291985e+00  9.5177592835151525e+00  9.6376714776246946e+00  9.3164912854809714e+00  1.1092302480582983e+01  1.1139393696724257e+01  1.0858248663306654e+01  1.1196705970356579e+01  1.1097293858497993e+01  1.0788255412333358e+01  1.0961229791571164e+01  9.9787808954633910e+00  8.8858991675174668e+00  9.1713087336571526e+00  9.5333093505169160e+00  1.0775508680962925e+01  9.8716708179233699e+00  1.0665562451266325e+01  1.0400868374101353e+01  1.1002018313108310e+01  1.0643756079183191e+01  1.1369077006258021e+01  1.0083255353659245e+01  1.0947515214745877e+01  1.0902167911931871e+01  1.0881898072638005e+01  1.0814709725726710e+01  9.8673607452418342e+00  1.0195046525032907e+01  9.8100265089666525e+00  9.7851120488524739e+00  9.0939703802875425e+00  9.4239037382560102e+00  9.6522783027719274e+00  9.9708209593335226e+00  9.1296427140788889e+00  8.9657801011634746e+00  9.0393832313399312e+00  9.3837690720850091e+00  1.0175122774841105e+01  1.0028744329541146e+01  1.0213821524308011e+01  1.0002411489131116e+01  1.0849581856760011e+01  1.1284283565313041e+01  1.0973953993320620e+01  1.1342234132089139e+01  1.0906696023415289e+01  1.1007177560818596e+01  1.0930864048653046e+01  1.0594210471541292e+01  9.7690856139584685e+00  9.2064428094068589e+00  1.0522297834589182e+01  1.0124127808249133e+01  1.0661242887956213e+01  9.8038150912988709e+00  1.0017595889365261e+01  9.2454867919981858e+00  9.6515031005344785e+00  9.6630524057502871e+00  1.0115544206731119e+01  9.8625351210473013e+00  9.8460917697017418e+00  1.1324813399084686e+01  1.1286392089443218e+01  1.1369355367707715e+01  1.1126960200030195e+01  1.0667021705377522e+01  1.1090081075126648e+01  1.1340828015482915e+01  1.0254761876961599e+01  1.0516214823506274e+01  1.0317155349900085e+01  1.0712448002622949e+01  1.0508934097239008e+01  9.7924533543095524e+00  1.0048097184361193e+01  9.1029310941094614e+00  1.0869841549820231e+01  1.0974378803545717e+01  1.0881789018859227e+01  1.0929634374998027e+01  1.0323437347636395e+01  1.1036663441543871e+01  1.0823685836923206e+01  1.1090717565569294e+01  9.5651779717591427e+00  9.8312362222007934e+00  1.0001861701144897e+01  9.1822215536246734e+00  1.0139354513346785e+01  1.0237444914006275e+01  1.0254383930389876e+01  9.1023828998244465e+00  9.0873585236392991e+00  9.3775191494659360e+00  9.0202772976176995e+00  9.1228596574790846e+00  9.0594128600808439e+00  9.3857266984453389e+00  8.9363327740967726e+00  9.0530572103416258e+00  9.1264055287360897e+00  9.0738199003998474e+00  9.1455970561681070e+00  8.9257604222300628e+00  9.2363584316549971e+00  8.9278432394588254e+00  1.0645500303119611e+01  9.9156096426608631e+00  1.0367470395013260e+01  9.9536701792744360e+00  1.0190901624354343e+01  9.8885174664948554e+00  9.2496209911711347e+00  1.0575228953532209e+01  9.9134091115915357e+00  8.7711321712630017e+00  9.3899847558910867e+00  1.0587492613192099e+01  9.1754197967048547e+00  9.3128685234213204e+00  9.2370302401271065e+00  9.4435553050013272e+00  9.3411600467643616e+00  9.6844957094151827e+00  1.0113139480050130e+01  1.0193962245524080e+01  9.3380430870448450e+00  1.0602888745568778e+01  9.6213107927286998e+00  1.0133421753839594e+01  1.0322928245220856e+01  9.0931302233654669e+00  9.0275993883216099e+00  8.9914725613036577e+00  8.8262167035411867e+00  9.7538519757464002e+00  8.9194296896281831e+00  9.4469954289534801e+00  1.1335888718049143e+01  1.1053195060559952e+01  1.0552047811639833e+01  1.1071260253272346e+01  1.0875112704283250e+01  1.0785359799655421e+01  1.1134458567633864e+01  9.8552195115574222e+00  1.0300603384234412e+01  9.6873762089359889e+00  1.0454575159743632e+01  1.0676389795340331e+01  1.0222354370917362e+01  1.0499561452479004e+01  1.0738909638000322e+01  1.1423438170089989e+01  1.1374513962404382e+01  1.1153147531925260e+01  1.0727845859359007e+01  1.0212487117555428e+01  1.0375682560869642e+01  9.7292166509934681e+00  9.1911300731363745e+00  1.0224442516138568e+01  9.1206485862655633e+00  1.0085893314141645e+01  1.0003552628823963e+01  9.8249707972366025e+00  1.1397682624907567e+01  1.1391052280437982e+01  1.1220947206764029e+01  1.1232895333636336e+01  1.1112447360087151e+01  1.1062627331026210e+01  1.0989623733034131e+01  9.0312965698923762e+00  1.0436480437267084e+01  9.7717124225998990e+00  9.5978811268867297e+00  8.9855091300693601e+00  9.0373161954845695e+00  9.0187876323753411e+00  1.1387238812846761e+01  1.1139549850897293e+01  1.1107252535132723e+01  1.0889838097932945e+01  1.1157805823826269e+01  1.1202882296694135e+01  9.2032404140309030e+00  9.6864795255923983e+00  9.84161371392