<?xml version="1.0"?>
<VTKFile type="UnstructuredGrid"  version="0.1"  >
<UnstructuredGrid>
<Piece  NumberOfPoints="1416" NumberOfCells="2750">
<Points>
<DataArray  type="Float64"  NumberOfComponents="3"  format="ascii">10000 0 0  9969.173337331546 784.5909572750695 0  9440.811062854247 337.8086441165926 0  9969.173337331289 -784.5909572783328 0  9119.461671696214 -436.047325602827 0  0 10000 0  784.5909572783328 9969.173337331289 0  436.0473256028242 9119.461671696214 0  -784.5909572750695 9969.173337331546 0  -337.8086441165958 9440.811062854247 0  -10000 0 0  -9969.173337331289 784.5909572783328 0  -9119.461671696214 436.0473256028198 0  -9969.173337331546 -784.5909572750695 0  -9440.811062854247 -337.8086441165943 0  0 -10000 0  -784.5909572783328 -9969.173337331289 0  -436.0473256028237 -9119.461671696215 0  784.5909572750695 -9969.173337331546 0  337.8086441165926 -9440.811062854247 0  1000 0 0  825.5112685286344 233.2965221726817 0  1210.652051555102 178.7580587220347 0  758.3105164940762 -28.48526495347746 0  1257.782871779572 -45.21674913664203 0  853.1788281180126 -255.1195435303564 0  1122.147561214101 -201.3091483794531 0  0 1000 0  -224.5942532759738 814.142362917265 0  28.69055186178868 757.9412270694447 0  -193.2123325114539 1112.182883894174 0  179.7197598806582 1215.220055532552 0  249.331013302979 860.3118401498294 0  -37.93559097040777 1253.495422595633 0  -1000 0 0  -824.851195817888 -232.1783906338463 0  -1210.595922923236 -178.6629795095487 0  -757.4575350892064 29.53393923004192 0  -1257.504710586107 45.16695969320045 0  -851.7633041405784 248.1772228548502 0  -1120.885945661195 200.0563625481669 0  0 -1000 0  249.0340813110638 -842.6509245101993 0  180.0207135594895 -1211.849580489497 0  18.33127838206231 -719.7561862243336 0  -45.09404287730242 -1257.692498219919 0  -252.413804548122 -852.0675834927048 0  -200.9036788868213 -1120.94680153162 0  2000 0 0  1712.325186787277 -225.5688316983879 0  1949.292517575665 -404.0263120746235 0  1758.092477153796 22.27922893435602 0  2220.4090632581 -278.1657736385001 0  2264.940937824128 12.17221832991 0  2022.901005636987 245.209440425862 0  0 2000 0  301.9748726397239 1740.654411212139 0  1.120723757020302e-12 1745.628282521672 0  388.8436927040806 1995.749174184361 0  -265.4266168243358 2269.848489623402 0  -269.5511398733495 1970.956450977053 0  14.70097338908518 2279.104059422062 0  278.8454224092475 2226.372287316351 0  -2000 0 0  -1712.325186787277 225.5688316983877 0  -1949.292517575666 404.026312074623 0  -1758.092477153796 -22.27922893435661 0  -2220.4090632581 278.1657736385 0  -2264.940937824128 -12.1722183299102 0  -2022.901005636987 -245.2094404258624 0  0 -2000 0  -225.5688316983879 -1712.325186787277 0  -404.0263120746235 -1949.292517575665 0  22.17353424893216 -1758.317218185472 0  -278.1657736385001 -2220.4090632581 0  12.17221832991003 -2264.940937824128 0  245.209440425862 -2022.901005636987 0  9876.883405952116 1564.344650397643 0  9413.741379249825 893.2779112941004 0  9723.699203978225 2334.453638552975 0  9281.686298197614 1862.981019420672 0  8978.354407498971 1302.212327038938 0  9510.565162954143 3090.169943741452 0  9171.616356661538 2425.460729511194 0  9238.7953251169 3826.834323641162 0  8786.327444180986 2855.609134985008 0  8910.065241889364 4539.904997384312 0  8576.420325493971 4088.764306853787 0  8462.074319507847 3512.480585282223 0  8526.40164354859 5224.985647146975 0  8380.046298293893 4548.240288757754 0  8090.169943758854 5877.852522911823 0  7683.770966481169 5298.80797610165 0  7874.660194180307 4750.86281684807 0  7604.059656011831 6494.480483288346 0  7228.811045347766 5749.151035153302 0  7071.067811878895 7071.067811852055 0  6882.490700411468 6265.549259424126 0  6494.480483314509 7604.059655989487 0  6558.565613988438 6766.215058556128 0  5877.852522936711 8090.169943740771 0  5735.388635244923 7423.195460774175 0  5981.697728245949 6848.506665974658 0  5224.985647170473 8526.401643534191 0  5307.257413765717 7837.676472666109 0  4539.904997404682 8910.065241878983 0  4613.173854048643 7930.353439924153 0  3826.834323658716 9238.79532510963 0  3877.010908226574 8367.304709936669 0  3090.169943755497 9510.565162949579 0  3395.404259564986 8853.279745804064 0  2334.4536385629 9723.699203975842 0  2848.849836324876 8831.763646725167 0  1564.34465040468 9876.883405951001 0  1666.047411844783 9306.350461236803 0  2135.463838140692 8932.199249345211 0  1138.519892287582 9404.047671358992 0  -1564.344650397643 9876.883405952116 0  -893.2779112941062 9413.741379249825 0  -2334.453638552975 9723.699203978225 0  -1862.981019420678 9281.686298197616 0  -1302.212327038943 8978.354407498971 0  -3090.169943741452 9510.565162954143 0  -2425.460729511197 9171.61635666154 0  -3826.834323641162 9238.7953251169 0  -2855.609134985011 8786.32744418099 0  -4539.904997384312 8910.065241889364 0  -4088.764306853793 8576.420325493971 0  -3512.480585282231 8462.074319507852 0  -5224.985647146975 8526.40164354859 0  -4548.240288757759 8380.046298293893 0  -5877.852522911823 8090.169943758854 0  -5298.807976101652 7683.770966481165 0  -4750.862816848074 7874.660194180306 0  -6494.480483288346 7604.059656011831 0  -5749.151035153306 7228.811045347762 0  -7071.067811852055 7071.067811878895 0  -6265.549259424123 6882.490700411468 0  -7604.059655989487 6494.480483314509 0  -6766.215058556127 6558.565613988435 0  -8090.169943740771 5877.852522936711 0  -7423.195460774181 5735.388635244917 0  -6848.506665974661 5981.697728245946 0  -8526.401643534191 5224.985647170473 0  -7837.676472666112 5307.257413765715 0  -8910.065241878983 4539.904997404682 0  -7930.353439924156 4613.173854048636 0  -9238.79532510963 3826.834323658716 0  -8367.304709936674 3877.010908226573 0  -9510.565162949579 3090.169943755497 0  -8853.279745804064 3395.404259564985 0  -9723.699203975842 2334.4536385629 0  -8831.763646725163 2848.849836324873 0  -9876.883405951001 1564.34465040468 0  -9306.350461236801 1666.047411844779 0  -8932.199249345213 2135.463838140684 0  -9404.047671358992 1138.519892287579 0  -9876.883405952116 -1564.344650397643 0  -9413.741379249826 -893.2779112941001 0  -9723.699203978225 -2334.453638552975 0  -9281.686298197616 -1862.981019420666 0  -8978.354407498975 -1302.212327038933 0  -9510.565162954143 -3090.169943741452 0  -9171.61635666154 -2425.460729511192 0  -9238.7953251169 -3826.834323641162 0  -8786.32744418099 -2855.609134985002 0  -8910.065241889364 -4539.904997384312 0  -8576.420325493969 -4088.764306853795 0  -8462.074319507856 -3512.480585282229 0  -8526.40164354859 -5224.985647146975 0  -8380.046298293893 -4548.240288757762 0  -8090.169943758854 -5877.852522911823 0  -7683.770966481169 -5298.807976101652 0  -7874.660194180307 -4750.862816848075 0  -7604.059656011831 -6494.480483288346 0  -7228.811045347765 -5749.151035153303 0  -7071.067811878895 -7071.067811852055 0  -6882.490700411463 -6265.549259424131 0  -6494.480483314509 -7604.059655989487 0  -6558.565613988436 -6766.215058556136 0  -5877.852522936711 -8090.169943740771 0  -5735.388635244922 -7423.195460774175 0  -5981.697728245952 -6848.506665974656 0  -5224.985647170473 -8526.401643534191 0  -5307.257413765717 -7837.676472666109 0  -4539.904997404682 -8910.065241878983 0  -4613.173854048643 -7930.353439924151 0  -3826.834323658716 -9238.79532510963 0  -3877.010908226574 -8367.304709936669 0  -3090.169943755497 -9510.565162949579 0  -3395.404259564985 -8853.279745804059 0  -2334.4536385629 -9723.699203975842 0  -2848.849836324873 -8831.763646725161 0  -1564.34465040468 -9876.883405951001 0  -1666.047411844782 -9306.350461236796 0  -2135.463838140686 -8932.199249345209 0  -1138.519892287581 -9404.047671358991 0  1564.344650397643 -9876.883405952116 0  893.2779112940983 -9413.741379249826 0  2334.453638552975 -9723.699203978225 0  1862.981019420666 -9281.686298197616 0  1302.212327038932 -8978.354407498975 0  3090.169943741452 -9510.565162954143 0  2425.460729511192 -9171.61635666154 0  3826.834323641162 -9238.7953251169 0  2855.609134985002 -8786.32744418099 0  4539.904997384312 -8910.065241889364 0  4088.764306853795 -8576.420325493969 0  3512.480585282229 -8462.074319507856 0  5224.985647146975 -8526.40164354859 0  4548.240288757762 -8380.046298293893 0  5877.852522911823 -8090.169943758854 0  5298.807976101651 -7683.770966481169 0  4750.862816848074 -7874.660194180306 0  6494.480483288346 -7604.059656011831 0  5749.151035153302 -7228.811045347768 0  7071.067811852055 -7071.067811878895 0  6265.54925942412 -6882.490700411468 0  7604.059655989487 -6494.480483314509 0  6766.215058556126 -6558.56561398844 0  8090.169943740771 -5877.852522936711 0  7423.195460774175 -5735.388635244922 0  6848.506665974652 -5981.697728245953 0  8526.401643534191 -5224.985647170473 0  7837.676472666108 -5307.257413765719 0  8910.065241878983 -4539.904997404682 0  7930.353439924147 -4613.173854048646 0  9238.79532510963 -3826.834323658716 0  8367.304709936667 -3877.010908226576 0  9510.565162949579 -3090.169943755497 0  8853.279745804059 -3395.404259564986 0  9723.699203975842 -2334.4536385629 0  8831.76364672516 -2848.849836324872 0  9876.883405951001 -1564.34465040468 0  9306.350461236796 -1666.047411844782 0  8932.199249345209 -2135.463838140685 0  9404.047671358989 -1138.519892287582 0  3890.561977844704 -3980.209838863507 0  3378.112472111499 -3620.467011831335 0  3865.652261003032 -3450.186185358944 0  3413.999318598406 -4024.335624504108 0  4503.212714161729 -3720.115308817993 0  4398.512117453444 -4241.925396324142 0  3572.533128876644 -4426.573998554646 0  3995.622341410154 -4399.580205031658 0  -3980.209838863506 -3890.561977844704 0  -3620.467011831334 -3378.112472111499 0  -3450.186185358944 -3865.652261003033 0  -4024.335624504107 -3413.999318598408 0  -3720.115308817994 -4503.21271416173 0  -4241.925396324144 -4398.512117453445 0  -4426.573998554645 -3572.533128876645 0  -4399.580205031658 -3995.622341410156 0  3980.209838863507 3890.561977844706 0  3620.467011831334 3378.
[...]
<PointData  Scalars="f_503880"> 
<DataArray  type="Float64"  Name="f_503880"  format="ascii">9.8137862465321195e+00  9.4143987831531870e+00  9.2154041306259931e+00  9.6640319476440073e+00  1.0106143396920013e+01  1.0424150967905472e+01  1.0524347402683194e+01  1.0234410871159156e+01  1.0381070337240804e+01  1.0396587382021901e+01  1.0839945213903595e+01  1.0334114563454193e+01  1.1058342771039932e+01  1.0779428712227572e+01  1.1052894836265626e+01  1.0013765375623532e+01  1.0111458095421767e+01  9.7777379749944124e+00  9.7386952157272990e+00  9.5931992327578008e+00  8.9628459473601936e+00  9.2015685642845479e+00  8.9481914491843639e+00  9.0699983853433217e+00  8.9223156123158454e+00  8.9579600762856550e+00  8.9255273257495524e+00  1.0802405453460976e+01  1.0860918920548372e+01  1.0531175903031313e+01  1.1146647763460816e+01  1.0958574383959638e+01  1.0470906903388707e+01  1.1178889844487694e+01  1.0126770925633467e+01  9.4914722753302314e+00  1.0139184643790458e+01  9.8854349212393213e+00  1.0469527016590074e+01  1.0467844484503894e+01  1.0652748002396327e+01  9.6843469242628704e+00  9.5105440271318091e+00  9.9599476157567359e+00  9.4149615932026958e+00  9.8825003658124988e+00  9.4949519470127850e+00  9.7256117798971751e+00  8.9033345675500346e+00  8.9319915457078807e+00  9.2219067433915480e+00  8.9484020974900567e+00  9.4234731016978959e+00  9.0941278471803049e+00  8.9788989218261985e+00  1.1066028709993716e+01  1.1150849393498049e+01  1.1394811172030485e+01  1.0227305071690283e+01  1.0942896336616867e+01  1.1090475238563062e+01  1.0823894725456903e+01  1.0306296853442987e+01  1.0805886210288492e+01  1.1012950040228306e+01  1.1206297960841180e+01  1.0549978891539645e+01  1.1203724813427151e+01  1.1104251313550458e+01  1.0142115161220886e+01  1.0015522828400897e+01  9.9654548857127221e+00  9.9300795278564440e+00  1.0107842060544980e+01  9.9870894256299998e+00  9.8260749868815047e+00  9.8910037699264937e+00  9.4691011463207957e+00  8.9122378899864110e+00  1.0342709833250179e+01  9.7616312345310234e+00  9.1252139031446351e+00  1.0625929693014887e+01  1.0444454000293492e+01  1.0485662538250820e+01  1.0696725592538490e+01  1.0565064009020935e+01  1.0557091268192012e+01  1.0533046891060089e+01  1.0123778563371904e+01  1.0430135361730995e+01  9.8867793806623911e+00  9.4696048797937920e+00  1.0026244370029737e+01  1.0506217065317106e+01  9.9471171426750509e+00  1.0724826149106471e+01  1.0697560621093343e+01  1.0710098815649467e+01  1.0933414502340513e+01  1.0441203332026722e+01  1.0684836283423339e+01  1.1053890701111236e+01  1.0006290910221422e+01  1.0165282872310081e+01  1.0171505216740735e+01  9.6248116515911697e+00  1.0482230190927320e+01  1.0078279539927435e+01  1.0403734970158116e+01  1.0386845454528943e+01  1.0365419650830518e+01  1.0145925351200040e+01  1.0447150906473412e+01  1.0179683204023460e+01  9.8282133470691200e+00  1.0319337530842260e+01  1.0393971476110041e+01  1.0399993096640292e+01  1.0376726796098964e+01  1.0391241354984086e+01  1.0269882386365255e+01  1.0355149031101718e+01  1.0393145140742879e+01  1.0356001429423637e+01  1.0395820889583042e+01  1.0427149358614892e+01  1.0366398030430883e+01  1.0366627955239720e+01  1.0396486962962083e+01  1.0360757656999121e+01  1.0217958089263021e+01  1.0104378250030651e+01  1.0253488607060934e+01  1.0087366820365727e+01  9.8998815641915048e+00  1.0149182195882778e+01  9.9060017972751773e+00  1.0391399359208089e+01  1.0024533933210215e+01  1.0351331739104678e+01  1.0217514441855633e+01  1.0073151680755577e+01  9.9228671904376320e+00  9.9279017686624123e+00  9.9740783286351675e+00  9.5525387821145618e+00  1.0260874183218338e+01  9.9259334171038081e+00  9.7546064792295191e+00  9.7272130669979031e+00  9.7741422451476687e+00  9.2787985218431377e+00  9.7476824811373994e+00  9.5349593554378078e+00  9.6559524612635297e+00  9.9205775483362970e+00  1.0611432658424841e+01  1.0776690422756706e+01  1.0682490749755896e+01  1.0715798620952949e+01  1.0452691019564837e+01  1.0735821665584641e+01  1.0847817065395313e+01  1.0789653136852934e+01  1.0896926311407206e+01  1.0766045901637787e+01  1.0992251089078584e+01  1.1061467745782409e+01  1.0522364487241983e+01  1.0894864944049365e+01  9.7838713200293910e+00  9.6481517074256598e+00  1.0628882433083293e+01  9.7025411881878512e+00  9.1415977229922696e+00  9.6970917410267017e+00  9.1650560449742482e+00  9.7369338194225001e+00  9.1540468096215779e+00  1.0116055560651363e+01  9.6297325566201817e+00  9.1066380477745312e+00  9.7050152781661954e+00  9.7236183818982553e+00  9.4464248044527039e+00  9.1573464147184431e+00  9.5412072538160224e+00  9.1385799384435522e+00  9.5095706979308918e+00  9.1327938227332872e+00  9.3788413743873242e+00  8.9064741967259611e+00  9.5951048586571535e+00  9.0916535161080905e+00  8.9841670539967247e+00  9.4579623077252446e+00  9.4544821383942761e+00  9.3953208181561312e+00  9.5439010822950259e+00  9.1296551295565660e+00  9.3448477843586399e+00  9.5670357723946360e+00  9.1240804498792105e+00  9.7687655927077355e+00  9.0374291326313791e+00  1.0097101977501545e+01  9.6815138753463312e+00  9.3078473246993934e+00  9.9834910773448406e+00  9.7843238806706143e+00  9.9504851529395850e+00  9.6777054160532678e+00  9.6549760221605307e+00  9.8779313361189338e+00  9.4824160478126487e+00  9.7730551154737402e+00  9.3463961926410288e+00  9.6102034458786605e+00  9.2774465679201814e+00  9.7276812211552048e+00  9.1747853253351757e+00  9.2063251832133766e+00  9.5572309352573654e+00  9.2039449942108700e+00  9.5768100085072980e+00  9.1083173643043249e+00  9.9231109775934527e+00  9.5708653936207906e+00  1.0066254248594950e+01  9.8179241724055988e+00  9.8165937071282947e+00  9.6933240659727780e+00  9.5687167353378850e+00  9.1554837242264053e+00  9.1112968288768510e+00  9.2409112265569160e+00  9.1068457792824837e+00  9.3179858869498471e+00  8.9377451755489510e+00  9.1680736423992553e+00  9.0489458728274723e+00  9.6521820096110673e+00  9.1657653305555407e+00  9.3375601125765151e+00  9.3241082080356659e+00  9.0144253688277018e+00  9.8442601512271484e+00  8.9871508915954994e+00  9.9056877672143173e+00  9.3179917938260459e+00  8.9496291410138813e+00  9.0846885669323534e+00  1.1633615902032130e+01  1.1200931625568778e+01  1.1545287982479364e+01  1.0665407506015862e+01  1.1088632597369951e+01  1.1137229288980539e+01  1.1384303038008625e+01  1.1618650376114172e+01  1.0166031080194113e+01  1.1242271231065995e+01  1.1003116283805481e+01  1.0215987625295954e+01  1.0020503305674330e+01  1.0236633643377800e+01  9.7336563557819549e+00  1.0179038001031165e+01  9.9972369066473963e+00  9.1407240504250229e+00  8.9398386409031509e+00  9.8839895776026658e+00  1.0384362924363623e+01  1.0568586051302693e+01  1.0169004668513924e+01  1.0385266711887162e+01  9.6711051300210258e+00  1.0452302323218678e+01  1.0018689969007287e+01  1.0242159175070354e+01  1.0351497959292182e+01  1.0045692241034503e+01  1.1073350089639462e+01  1.0828390157680669e+01  1.0671042455945924e+01  1.0911604232028123e+01  1.0931296771497768e+01  1.1080768782616710e+01  1.0996619784085429e+01  8.9935668307261576e+00  9.0783015029828373e+00  8.9904847112814750e+00  9.2941507959292462e+00  9.1497088989463329e+00  8.9511003400984208e+00  9.0265365522539405e+00  1.1039818167172706e+01  1.1210811404739612e+01  1.1191126820007923e+01  1.0953856085684146e+01  1.0894414483655646e+01  1.0761048510670372e+01  1.0981475075670572e+01  8.9840892832587826e+00  9.1502508505905080e+00  8.9889462424441131e+00  9.2286840802152490e+00  8.7010171088373482e+00  9.2412838353023083e+00  1.0615631453908161e+01  9.1080069149600451e+00  8.9333934321261825e+00  8.7859907359988547e+00  9.1384894613349275e+00  9.1304571567879140e+00  9.6438314629233091e+00  9.6783071154745368e+00  9.3272524603916267e+00  9.9238199635396747e+00  9.7445454765767163e+00  9.3303938851721160e+00  9.6681218715792703e+00  9.4331491209690963e+00  9.0239276879807360e+00  1.1293976735767076e+01  1.1230979531833640e+01  1.1131837980830415e+01  1.1264104094963121e+01  1.1219052026150896e+01  1.1238047491107070e+01  1.1328437271722670e+01  1.0841506353169102e+01  1.1057328478944108e+01  1.1194714819872566e+01  1.1155385258769432e+01  1.1043103897520345e+01  1.0081236042571765e+01  9.7326366734628511e+00  9.8944006245165674e+00  1.0199523586086128e+01  1.0203262970335256e+01  1.0152694569929302e+01  9.0067700175073213e+00  9.2740850554106942e+00  9.4670731928278400e+00  9.1276693410117211e+00  8.8974217488181573e+00  9.1299108601554977e+00  8.9944752771411114e+00  9.0243354179050748e+00  9.2759711869119368e+00  9.0367520653467430e+00  9.0775667976955123e+00  9.4851375401205704e+00  9.4178129469380085e+00  9.2798032834837691e+00  1.0046192814687215e+01  9.8241149790556399e+00  9.5712694688787199e+00  8.7966164058714025e+00  9.0463439014284113e+00  9.9564380273723749e+00  1.0299818102711550e+01  1.0558646684102946e+01  1.1022561054123106e+01  9.7697528764435599e+00  9.2924618272799382e+00  1.0474023410079379e+01  1.1189895042749745e+01  8.9365460578621025e+00  9.1612545452976235e+00  9.5357927219305907e+00  9.0650136686984144e+00  9.3267216679813441e+00  9.0188239393436689e+00  9.5055147563131133e+00  9.6694106238187469e+00  9.8758134262491417e+00  1.0111202664989776e+01  1.0107505757834643e+01  9.6756503692182800e+00  9.0174321566494076e+00  9.2460008270749920e+00  1.0243343750961685e+01  1.0514953990284550e+01  1.0515936023965095e+01  1.0095558484956282e+01  9.8850455995110700e+00  9.6705982863722859e+00  9.9755608615531450e+00  1.1094876247303082e+01  1.1374531573634991e+01  1.0668307313316026e+01  1.1084330954802340e+01  1.0983240249975776e+01  1.1322674593069852e+01  9.7567596738669415e+00  1.0667945143348554e+01  1.0759309785833771e+01  1.0572745950884734e+01  1.1027712132524211e+01  1.1075836495106627e+01  1.1146380227374955e+01  1.0931851358540433e+01  1.1298772523783638e+01  1.1424958325058816e+01  1.1237204780193208e+01  1.1213130806399853e+01  1.1073934642581165e+01  1.1074659233875016e+01  1.1297858146455072e+01  9.1437486813191740e+00  8.9538266572336909e+00  9.0427249638454459e+00  9.1776962606617989e+00  9.7890950270748185e+00  9.6571761872107231e+00  9.7479590846497075e+00  9.1033979400066478e+00  1.0048058232758146e+01  9.3608734345504079e+00  1.0250110213401813e+01  1.0359671496584150e+01  1.0178172927305393e+01  9.1873978959853044e+00  1.0406821641276435e+01  1.0320222611903793e+01  1.0338625754711428e+01  1.0212855095289797e+01  1.0211771872238392e+01  1.0206287118557293e+01  1.0348765238890675e+01  1.0847877372798335e+01  1.0910070037746552e+01  1.0631009633383965e+01  1.0967099952941897e+01  1.1020723380458943e+01  1.1145895705610933e+01  9.9492785419789769e+00  1.0180901091583099e+01  9.8927768419740243e+00  1.0714195271737042e+01  9.8442735282095786e+00  1.0086910159394041e+01  8.9545393280126966e+00  8.9354450533034111e+00  9.2240334911485622e+00  9.1969727511371371e+00  9.0124064209078298e+00  8.9288782659309156e+00  9.9684945163207033e+00  9.4472259297190444e+00  9.6162152968728609e+00  1.0092391221186325e+01  1.0126279241909353e+01  1.0060837522960044e+01  9.6551796048547072e+00  9.1197997301000662e+00  9.0955841807639164e+00  9.6402277812443362e+00  9.7896559773488381e+00  9.7647532132160837e+00  9.8035283358314160e+00  9.2856985605671571e+00  9.8705577219681491e+00  1.1379664230252786e+01  1.0948240320673793e+01  1.1487639597595088e+01  1.0870084092937059e+01  1.0059323350572283e+01  1.0590405359540657e+01  1.0686266731681773e+01  1.1235354060690291e+01  1.0875267768310495e+01  9.4399385224595136e+00  9.0935818586409471e+00  9.6531021542107318e+00  9.3825754618589361e+00  9.6100214498399126e+00  9.6949387952839245e+00  9.3473552203134922e+00  9.3961372927997537e+00  9.5798809174456849e+00  9.7763293678358387e+00  1.0022849144471635e+01  9.5576972868148520e+00  1.0332327707099154e+01  9.7541593732557299e+00  1.0203822178200955e+01  9.5549928863119007e+00  9.6754604330192215e+00  1.0629137107487345e+01  1.0739410429062834e+01  1.0890126920275682e+01  1.0932766607612464e+01  1.0723027597256856e+01  1.0725416180412278e+01  1.0866182088921668e+01  1.0810821656583832e+01  1.0043883955751083e+01  9.0596418527535771e+00  9.0599832889183034e+00  9.1105690978448628e+00  1.0163717610513576e+01  1.1101401533364250e+01  1.0505628845165802e+01  9.9464228085510076e+00  9.9716304617020945e+00  9.7787950227974516e+00  1.0060663494306963e+01  1.0038011126757427e+01  1.0129474920383558e+01  9.4928331036565083e+00  9.9678656437507733e+00  1.0107013804420436e+01  9.6909538718189427e+00  1.0470739190377872e+01  1.0515004724742363e+01  9.3791925863781547e+00  9.2813317290144344e+00  1.0874422146407129e+01  1.0304732471922785e+01  1.0981802861238231e+01  9.2331207677066356e+00  8.9217838866981811e+00  1.0309458457588535e+01  1.1063519450004323e+01  1.1157919474116129e+01  9.9829021343900344e+00  9.2810302556177433e+00  9.0793640419948769e+00  9.6131331058850957e+00  9.5600447795742074e+00  1.0146526182363965e+01  9.5004585891127391e+00  9.8850185861169990e+00  9.4693557085646418e+00  9.1048577317449233e+00  8.9413693414130293e+00  9.2874157360172944e+00  9.4180902302380645e+00  9.2555788896698434e+00  9.3502717217449707e+00  9.4626219319109399e+00  1.0611256100061956e+01  1.0693760657193517e+01  1.0733674040547868e+01  1.0101028931297455e+01  9.9494325368744008e+00  9.1955526626849799e+00  1.0705503235241151e+01  1.0527006490856554e+01  1.0990355152059772e+01  9.1498109696109768e+00  1.0562476396217285e+01  9.8572895926745829e+00  9.4083051129792743e+00  9.9281366037113390e+00  1.1094962719476099e+01  1.0088425710938560e+01  8.9724450289026141e+00  8.9883252502649853e+00  9.0175463209922135e+00  8.9876333456859996e+00  9.5969411413359200e+00  9.0357506122282611e+00  9.4736635392215458e+00  9.0257632566461030e+00  9.5928518865736887e+00  8.8553023992139064e+00  9.0770444075379899e+00  9.2799076372155245e+00  9.1105263865820660e+00  9.0643098025850577e+00  9.4906947229385796e+00  9.1675638449004584e+00  1.1007249697136775e+01  1.0830728542575789e+01  1.0951344865422611e+01  1.0538079603086736e+01  1.0903167909887943e+01  1.0943364963720871e+01  1.1223317445481291e+01  1.0880348967397319e+01  9.5383371278103031e+00  9.4465912697647898e+00  9.3055923863453032e+00  9.8240082759160803e+00  9.2214082612192971e+00  9.5484906595491559e+00  1.0049439141259198e+01  9.8757215542763070e+00  1.1131970933434735e+01  1.1373727086191836e+01  1.1290615896817942e+01  1.1112868398220249e+01  1.1243001711987556e+01  1.1005053319530203e+01  1.1308194622747964e+01  1.0872148466498219e+01  1.1546826533049737e+01  1.0777314878307642e+01  1.1603183621806050e+01  1.0446384506631736e+01  1.0308719939508018e+01  1.0798013399949404e+01  1.0004388787916575e+01  9.6182891562058597e+00  9.6544874124761471e+00  1.0114865209720120e+01  1.0106353493056327e+01  9.8347505550711904e+00  9.6489786266097592e+00  1.0532676657122888e+01  1.0111685637393771e+01  1.0474096813764495e+01  1.0389949505652559e+01  1.0181550306010141e+01  1.0164601789205930e+01  1.0418731594829376e+01  9.7395430102328842e+00  9.7545323275667819e+00  9.8636720304892282e+00  9.1647568630854721e+00  8.9834128852178861e+00  9.7517326532339990e+00  1.0179042886663535e+01  8.9515699161228852e+00  9.0037336113146882e+00  9.0596713884935323e+00  9.2747683854502618e+00  9.0684523257819958e+00  9.2011103858713650e+00  9.6148518216967922e+00  9.5077452426317244e+00  8.9324572072326198e+00  8.9866399273415709e+00  9.1765787164899404e+00  9.5078238655530818e+00  9.6549497733815866e+00  9.2013974114970587e+00  1.1244014004092918e+01  1.1008162025063710e+01  1.0690346235139312e+01  1.1220904718935012e+01  1.1091670680649457e+01  1.0648267434689439e+01  1.1134722785901028e+01  9.9422281734651339e+00  8.9935872211692853e+00  9.1393825594021862e+00  9.5545075076522483e+00  1.0724071928153437e+01  9.8719970275306537e+00  1.0647621344248723e+01  1.0503146532999574e+01  1.1002045599232591e+01  1.0635951065788200e+01  1.1349791699064754e+01  1.0193717572671973e+01  1.0856778335831503e+01  1.0891318614220056e+01  1.0808457443254943e+01  1.0862674315397825e+01  9.7622861972509920e+00  1.0096821330485579e+01  9.9164622192034741e+00  9.8706833743756093e+00  9.1994023392041022e+00  9.5412756604657059e+00  9.6962926198135051e+00  1.0032715880451237e+01  9.1351794919060243e+00  8.9673355517757312e+00  8.9701454095242443e+00  9.3797280037546429e+00  1.0183752216183885e+01  9.9132813242728748e+00  1.0146437437922778e+01  1.0124747844054610e+01  1.0905395157982541e+01  1.1227152888072400e+01  1.1012421634832446e+01  1.1337615442856688e+01  1.0913559415767448e+01  1.0998918118442997e+01  1.0943292928964933e+01  1.0579812865992210e+01  9.7540078359359139e+00  9.3022089164605717e+00  1.0518580593432555e+01  1.0119477879552113e+01  1.0700709728447775e+01  9.8054004407629467e+00  1.0029589026707370e+01  9.1917912803651944e+00  9.6963598438610514e+00  9.7007964193162923e+00  1.0130429833685211e+01  9.7935417461401499e+00  9.8192837378122615e+00  1.1298371972934401e+01  1.1307419664609931e+01  1.1481447508312637e+01  1.1098408968749913e+01  1.0549501358703242e+01  1.1217889263056788e+01  1.1418137163588675e+01  1.0236589797718670e+01  1.0557326049967138e+01  1.0353102960701502e+01  1.0658874514140827e+01  1.0505096858887537e+01  9.7684165177189772e+00  1.0085342241801886e+01  9.0955846598483472e+00  1.0859055879511923e+01  1.0974932690037273e+01  1.0932643495346873e+01  1.0940797719997340e+01  1.0304819732592065e+01  1.1060905376635308e+01  1.0825213992924279e+01  1.1068128657632542e+01  9.3384225410972057e+00  1.0154300960226591e+01  1.0279369716176747e+01  9.0829998408164503e+00  1.0152763992648982e+01  1.0289704506883675e+01  1.0157093181778849e+01  9.1142248159062458e+00  8.9829140892086805e+00  9.5571088626028864e+00  8.9850031200095728e+00  9.0470811411056893e+00  9.1401202134450088e+00  9.4592759327721136e+00  8.9505377661561489e+00  9.0571543463769029e+00  9.0453438061705178e+00  9.1666756098876689e+00  9.0670852401735509e+00  8.9745727435595537e+00  9.2618243596229224e+00  8.9793002115989751e+00  1.0483924726866812e+01  1.0050125062097411e+01  1.0302476363905280e+01  1.0045450605535601e+01  1.0093743469112090e+01  1.0025553425138149e+01  9.2036601685716519e+00  1.0485578652944731e+01  9.9873921475545071e+00  8.9891841027091370e+00  9.3619018994599763e+00  1.0570562789136574e+01  9.1677383626687448e+00  9.5015391691469926e+00  9.2085520911110734e+00  9.5582505298377818e+00  9.2983211104636894e+00  9.6814934793655674e+00  1.0096619350394125e+01  1.0228960297440384e+01  9.4031253892646216e+00  1.0605150995149506e+01  9.6990450756108721e+00  1.0129051410449796e+01  1.0207659573966872e+01  9.0821677906967153e+00  9.0082105830895767e+00  8.9006063367175994e+00  9.0435572347116899e+00  9.6999016826769608e+00  9.1400321505881621e+00  9.5219491936949350e+00  1.1347503755224118e+01  1.1144735079252438e+01  1.0594461561724854e+01  1.0848642648740819e+01  1.0855224108185455e+01  1.0769628741115898e+01  1.1030960667053201e+01  9.7967230519025730e+00  1.0316281025492803e+01  9.6056271143836494e+00  1.0308817008033312e+01  1.0639619744651332e+01  1.0193256136022757e+01  1.0588850415314512e+01  1.0698272877029762e+01  1.1547091349984365e+01  1.1364077276508928e+01  1.1049103755552313e+01  1.0684054727137406e+01  1.0233831656022776e+01  1.0385798598774455e+01  9.8201615900544894e+00  9.1567489361361041e+00  1.0189441755917770e+01  9.1401730946201933e+00  1.0060587849673546e+01  9.9822212254118465e+00  9.7539461917820987e+00  1.1393773426227376e+01  1.1431272453186846e+01  1.1239719347186357e+01  1.1092195003142852e+01  1.1156976164261287e+01  1.1027654787733127e+01  1.1136822953545867e+01  9.1032745861258757e+00  1.0301634714615542e+01  9.8013098122345585e+00  9.6134922672645295e+00  9.0044158660947193e+00  8.9502539999397950e+00  8.9776599507298673e+00  1.1396385283758400e+01  1.1144467780445252e+01  1.1070970800265995e+01  1.0838912633081641e+01  1.1204884188030251e+01  1.1188177565583665e+01  9.0935634443536859e+00  9.7302655114957375e+00  9.941293752