<?xml version="1.0"?>
<VTKFile type="UnstructuredGrid"  version="0.1"  >
<UnstructuredGrid>
<Piece  NumberOfPoints="1416" NumberOfCells="2750">
<Points>
<DataArray  type="Float64"  NumberOfComponents="3"  format="ascii">10000 0 0  9969.173337331546 784.5909572750695 0  9440.811062854247 337.8086441165926 0  9969.173337331289 -784.5909572783328 0  9119.461671696214 -436.047325602827 0  0 10000 0  784.5909572783328 9969.173337331289 0  436.0473256028242 9119.461671696214 0  -784.5909572750695 9969.173337331546 0  -337.8086441165958 9440.811062854247 0  -10000 0 0  -9969.173337331289 784.5909572783328 0  -9119.461671696214 436.0473256028198 0  -9969.173337331546 -784.5909572750695 0  -9440.811062854247 -337.8086441165943 0  0 -10000 0  -784.5909572783328 -9969.173337331289 0  -436.0473256028237 -9119.461671696215 0  784.5909572750695 -9969.173337331546 0  337.8086441165926 -9440.811062854247 0  1000 0 0  825.5112685286344 233.2965221726817 0  1210.652051555102 178.7580587220347 0  758.3105164940762 -28.48526495347746 0  1257.782871779572 -45.21674913664203 0  853.1788281180126 -255.1195435303564 0  1122.147561214101 -201.3091483794531 0  0 1000 0  -224.5942532759738 814.142362917265 0  28.69055186178868 757.9412270694447 0  -193.2123325114539 1112.182883894174 0  179.7197598806582 1215.220055532552 0  249.331013302979 860.3118401498294 0  -37.93559097040777 1253.495422595633 0  -1000 0 0  -824.851195817888 -232.1783906338463 0  -1210.595922923236 -178.6629795095487 0  -757.4575350892064 29.53393923004192 0  -1257.504710586107 45.16695969320045 0  -851.7633041405784 248.1772228548502 0  -1120.885945661195 200.0563625481669 0  0 -1000 0  249.0340813110638 -842.6509245101993 0  180.0207135594895 -1211.849580489497 0  18.33127838206231 -719.7561862243336 0  -45.09404287730242 -1257.692498219919 0  -252.413804548122 -852.0675834927048 0  -200.9036788868213 -1120.94680153162 0  2000 0 0  1712.325186787277 -225.5688316983879 0  1949.292517575665 -404.0263120746235 0  1758.092477153796 22.27922893435602 0  2220.4090632581 -278.1657736385001 0  2264.940937824128 12.17221832991 0  2022.901005636987 245.209440425862 0  0 2000 0  301.9748726397239 1740.654411212139 0  1.120723757020302e-12 1745.628282521672 0  388.8436927040806 1995.749174184361 0  -265.4266168243358 2269.848489623402 0  -269.5511398733495 1970.956450977053 0  14.70097338908518 2279.104059422062 0  278.8454224092475 2226.372287316351 0  -2000 0 0  -1712.325186787277 225.5688316983877 0  -1949.292517575666 404.026312074623 0  -1758.092477153796 -22.27922893435661 0  -2220.4090632581 278.1657736385 0  -2264.940937824128 -12.1722183299102 0  -2022.901005636987 -245.2094404258624 0  0 -2000 0  -225.5688316983879 -1712.325186787277 0  -404.0263120746235 -1949.292517575665 0  22.17353424893216 -1758.317218185472 0  -278.1657736385001 -2220.4090632581 0  12.17221832991003 -2264.940937824128 0  245.209440425862 -2022.901005636987 0  9876.883405952116 1564.344650397643 0  9413.741379249825 893.2779112941004 0  9723.699203978225 2334.453638552975 0  9281.686298197614 1862.981019420672 0  8978.354407498971 1302.212327038938 0  9510.565162954143 3090.169943741452 0  9171.616356661538 2425.460729511194 0  9238.7953251169 3826.834323641162 0  8786.327444180986 2855.609134985008 0  8910.065241889364 4539.904997384312 0  8576.420325493971 4088.764306853787 0  8462.074319507847 3512.480585282223 0  8526.40164354859 5224.985647146975 0  8380.046298293893 4548.240288757754 0  8090.169943758854 5877.852522911823 0  7683.770966481169 5298.80797610165 0  7874.660194180307 4750.86281684807 0  7604.059656011831 6494.480483288346 0  7228.811045347766 5749.151035153302 0  7071.067811878895 7071.067811852055 0  6882.490700411468 6265.549259424126 0  6494.480483314509 7604.059655989487 0  6558.565613988438 6766.215058556128 0  5877.852522936711 8090.169943740771 0  5735.388635244923 7423.195460774175 0  5981.697728245949 6848.506665974658 0  5224.985647170473 8526.401643534191 0  5307.257413765717 7837.676472666109 0  4539.904997404682 8910.065241878983 0  4613.173854048643 7930.353439924153 0  3826.834323658716 9238.79532510963 0  3877.010908226574 8367.304709936669 0  3090.169943755497 9510.565162949579 0  3395.404259564986 8853.279745804064 0  2334.4536385629 9723.699203975842 0  2848.849836324876 8831.763646725167 0  1564.34465040468 9876.883405951001 0  1666.047411844783 9306.350461236803 0  2135.463838140692 8932.199249345211 0  1138.519892287582 9404.047671358992 0  -1564.344650397643 9876.883405952116 0  -893.2779112941062 9413.741379249825 0  -2334.453638552975 9723.699203978225 0  -1862.981019420678 9281.686298197616 0  -1302.212327038943 8978.354407498971 0  -3090.169943741452 9510.565162954143 0  -2425.460729511197 9171.61635666154 0  -3826.834323641162 9238.7953251169 0  -2855.609134985011 8786.32744418099 0  -4539.904997384312 8910.065241889364 0  -4088.764306853793 8576.420325493971 0  -3512.480585282231 8462.074319507852 0  -5224.985647146975 8526.40164354859 0  -4548.240288757759 8380.046298293893 0  -5877.852522911823 8090.169943758854 0  -5298.807976101652 7683.770966481165 0  -4750.862816848074 7874.660194180306 0  -6494.480483288346 7604.059656011831 0  -5749.151035153306 7228.811045347762 0  -7071.067811852055 7071.067811878895 0  -6265.549259424123 6882.490700411468 0  -7604.059655989487 6494.480483314509 0  -6766.215058556127 6558.565613988435 0  -8090.169943740771 5877.852522936711 0  -7423.195460774181 5735.388635244917 0  -6848.506665974661 5981.697728245946 0  -8526.401643534191 5224.985647170473 0  -7837.676472666112 5307.257413765715 0  -8910.065241878983 4539.904997404682 0  -7930.353439924156 4613.173854048636 0  -9238.79532510963 3826.834323658716 0  -8367.304709936674 3877.010908226573 0  -9510.565162949579 3090.169943755497 0  -8853.279745804064 3395.404259564985 0  -9723.699203975842 2334.4536385629 0  -8831.763646725163 2848.849836324873 0  -9876.883405951001 1564.34465040468 0  -9306.350461236801 1666.047411844779 0  -8932.199249345213 2135.463838140684 0  -9404.047671358992 1138.519892287579 0  -9876.883405952116 -1564.344650397643 0  -9413.741379249826 -893.2779112941001 0  -9723.699203978225 -2334.453638552975 0  -9281.686298197616 -1862.981019420666 0  -8978.354407498975 -1302.212327038933 0  -9510.565162954143 -3090.169943741452 0  -9171.61635666154 -2425.460729511192 0  -9238.7953251169 -3826.834323641162 0  -8786.32744418099 -2855.609134985002 0  -8910.065241889364 -4539.904997384312 0  -8576.420325493969 -4088.764306853795 0  -8462.074319507856 -3512.480585282229 0  -8526.40164354859 -5224.985647146975 0  -8380.046298293893 -4548.240288757762 0  -8090.169943758854 -5877.852522911823 0  -7683.770966481169 -5298.807976101652 0  -7874.660194180307 -4750.862816848075 0  -7604.059656011831 -6494.480483288346 0  -7228.811045347765 -5749.151035153303 0  -7071.067811878895 -7071.067811852055 0  -6882.490700411463 -6265.549259424131 0  -6494.480483314509 -7604.059655989487 0  -6558.565613988436 -6766.215058556136 0  -5877.852522936711 -8090.169943740771 0  -5735.388635244922 -7423.195460774175 0  -5981.697728245952 -6848.506665974656 0  -5224.985647170473 -8526.401643534191 0  -5307.257413765717 -7837.676472666109 0  -4539.904997404682 -8910.065241878983 0  -4613.173854048643 -7930.353439924151 0  -3826.834323658716 -9238.79532510963 0  -3877.010908226574 -8367.304709936669 0  -3090.169943755497 -9510.565162949579 0  -3395.404259564985 -8853.279745804059 0  -2334.4536385629 -9723.699203975842 0  -2848.849836324873 -8831.763646725161 0  -1564.34465040468 -9876.883405951001 0  -1666.047411844782 -9306.350461236796 0  -2135.463838140686 -8932.199249345209 0  -1138.519892287581 -9404.047671358991 0  1564.344650397643 -9876.883405952116 0  893.2779112940983 -9413.741379249826 0  2334.453638552975 -9723.699203978225 0  1862.981019420666 -9281.686298197616 0  1302.212327038932 -8978.354407498975 0  3090.169943741452 -9510.565162954143 0  2425.460729511192 -9171.61635666154 0  3826.834323641162 -9238.7953251169 0  2855.609134985002 -8786.32744418099 0  4539.904997384312 -8910.065241889364 0  4088.764306853795 -8576.420325493969 0  3512.480585282229 -8462.074319507856 0  5224.985647146975 -8526.40164354859 0  4548.240288757762 -8380.046298293893 0  5877.852522911823 -8090.169943758854 0  5298.807976101651 -7683.770966481169 0  4750.862816848074 -7874.660194180306 0  6494.480483288346 -7604.059656011831 0  5749.151035153302 -7228.811045347768 0  7071.067811852055 -7071.067811878895 0  6265.54925942412 -6882.490700411468 0  7604.059655989487 -6494.480483314509 0  6766.215058556126 -6558.56561398844 0  8090.169943740771 -5877.852522936711 0  7423.195460774175 -5735.388635244922 0  6848.506665974652 -5981.697728245953 0  8526.401643534191 -5224.985647170473 0  7837.676472666108 -5307.257413765719 0  8910.065241878983 -4539.904997404682 0  7930.353439924147 -4613.173854048646 0  9238.79532510963 -3826.834323658716 0  8367.304709936667 -3877.010908226576 0  9510.565162949579 -3090.169943755497 0  8853.279745804059 -3395.404259564986 0  9723.699203975842 -2334.4536385629 0  8831.76364672516 -2848.849836324872 0  9876.883405951001 -1564.34465040468 0  9306.350461236796 -1666.047411844782 0  8932.199249345209 -2135.463838140685 0  9404.047671358989 -1138.519892287582 0  3890.561977844704 -3980.209838863507 0  3378.112472111499 -3620.467011831335 0  3865.652261003032 -3450.186185358944 0  3413.999318598406 -4024.335624504108 0  4503.212714161729 -3720.115308817993 0  4398.512117453444 -4241.925396324142 0  3572.533128876644 -4426.573998554646 0  3995.622341410154 -4399.580205031658 0  -3980.209838863506 -3890.561977844704 0  -3620.467011831334 -3378.112472111499 0  -3450.186185358944 -3865.652261003033 0  -4024.335624504107 -3413.999318598408 0  -3720.115308817994 -4503.21271416173 0  -4241.925396324144 -4398.512117453445 0  -4426.573998554645 -3572.533128876645 0  -4399.580205031658 -3995.622341410156 0  3980.209838863507 3890.561977844706 0  3620.467011831334 3378.
[...]
<PointData  Scalars="f_29969"> 
<DataArray  type="Float64"  Name="f_29969"  format="ascii">9.8364639040243596e+00  9.4379882651652895e+00  9.1810459631604520e+00  9.7264548974083009e+00  1.0055006066421978e+01  1.0400724113940596e+01  1.0494041304206261e+01  1.0245128155331898e+01  1.0394796746665680e+01  1.0420944129341029e+01  1.0849578821903982e+01  1.0345863259419145e+01  1.1097509940558529e+01  1.0781432240706961e+01  1.1076692929445286e+01  1.0030289589077640e+01  1.0146861580993823e+01  9.7825264286097333e+00  9.7877609625150601e+00  9.5882830773391117e+00  8.9697245778573773e+00  9.1795815542895483e+00  8.9240748970972117e+00  9.0892926879764104e+00  8.9399693869759886e+00  8.9985662607783770e+00  8.9563432498516917e+00  1.0803766748352864e+01  1.0837200641452544e+01  1.0540889565989133e+01  1.1135537449541378e+01  1.0945417487007562e+01  1.0485290047604494e+01  1.1176033383666464e+01  1.0098993302511351e+01  9.4719429765818077e+00  1.0085591301168760e+01  9.9026876298174749e+00  1.0431724828050584e+01  1.0494014014270546e+01  1.0632673561598576e+01  9.7320610486157761e+00  9.5374352240608555e+00  9.9889375088250034e+00  9.4589136536745517e+00  9.9173280142826155e+00  9.5516407149600226e+00  9.7464440034803221e+00  8.8969996743708233e+00  8.9021803730771651e+00  9.1944677034614788e+00  8.9545839608981517e+00  9.4590224868002561e+00  9.1068212780540403e+00  8.9979000344401197e+00  1.1048435226155853e+01  1.1176121795825237e+01  1.1384321650216901e+01  1.0209899201545008e+01  1.0956848348454864e+01  1.1074914395434199e+01  1.0831243310145730e+01  1.0266477807319138e+01  1.0818480291573925e+01  1.1026925897870413e+01  1.1198256613576156e+01  1.0579018465485795e+01  1.1165571245978665e+01  1.1103039827129354e+01  1.0154580023174226e+01  1.0006311512925960e+01  9.9854676762000327e+00  9.9219047372379467e+00  1.0096281148860559e+01  9.9409996000255436e+00  9.8223843154110533e+00  9.8855830790253076e+00  9.4550165363105929e+00  8.9158175203594805e+00  1.0361859361972623e+01  9.7494304931487523e+00  9.0994820195036628e+00  1.0643008611615464e+01  1.0458874222100411e+01  1.0491293442311237e+01  1.0714645343911224e+01  1.0551047639917366e+01  1.0562689639230090e+01  1.0544030940994338e+01  1.0093867689358047e+01  1.0437255467203862e+01  9.8571094202994534e+00  9.4562876197118744e+00  1.0058038062848041e+01  1.0495010174341061e+01  9.9336383167306757e+00  1.0804096539702568e+01  1.0742639588182191e+01  1.0776642166102002e+01  1.1016962531124433e+01  1.0423505641347850e+01  1.0704037050629310e+01  1.1100417817206129e+01  9.9933051574833165e+00  1.0148071053971204e+01  1.0181705725581894e+01  9.6083541591973631e+00  1.0480641178101306e+01  1.0085826502065714e+01  1.0412080559581360e+01  1.0390923955131409e+01  1.0411049901935897e+01  1.0155913912074938e+01  1.0449242506132032e+01  1.0193144653479946e+01  9.8436826216631008e+00  1.0318304717928388e+01  1.0369420234246014e+01  1.0414869373537217e+01  1.0352663733739741e+01  1.0377343412413698e+01  1.0285242263782452e+01  1.0346943495516756e+01  1.0376324306684788e+01  1.0356108299715737e+01  1.0383151361232247e+01  1.0396039091418460e+01  1.0345268073731706e+01  1.0350351634199098e+01  1.0382062352766255e+01  1.0343704456546265e+01  1.0184670986459519e+01  1.0086962546606852e+01  1.0261113251137532e+01  1.0009467287043361e+01  9.8601059277698493e+00  1.0058016333987378e+01  9.8498067455910441e+00  1.0345364170646127e+01  9.9746571066691700e+00  1.0305066590630085e+01  1.0213087253782824e+01  1.0077262786380224e+01  9.8949267116622703e+00  9.9045235191148340e+00  9.9565404926203218e+00  9.5375766026495654e+00  1.0273646800679940e+01  9.9485829572729081e+00  9.7468720484957423e+00  9.7373050318019114e+00  9.7430652985812003e+00  9.2900207502569785e+00  9.7628886142469486e+00  9.5188516256148841e+00  9.6559062630358046e+00  9.9285825392076852e+00  1.0613322534466132e+01  1.0773994587061358e+01  1.0691597272129474e+01  1.0708776012609231e+01  1.0434672571467569e+01  1.0727988316375416e+01  1.0839846172808507e+01  1.0820138638159380e+01  1.0877539822689851e+01  1.0883639661967354e+01  1.1076556396043259e+01  1.1053750484150507e+01  1.0528034434230582e+01  1.0986099406342609e+01  9.7397799588400495e+00  9.6004618889701501e+00  1.0653174948853961e+01  9.6284758846318095e+00  9.0937311669214793e+00  9.5889442713740127e+00  9.1124169973122360e+00  9.6723790598174553e+00  9.1075853139716756e+00  1.0050146446159228e+01  9.6259789575841292e+00  9.1342456261213840e+00  9.6732568617546786e+00  9.6898604772256292e+00  9.4627909924187321e+00  9.0944758156013776e+00  9.5709292775372727e+00  9.1648802024770006e+00  9.5321424179947041e+00  9.1688691291077316e+00  9.4117236721915827e+00  8.9505795519152080e+00  9.6714727713370348e+00  9.1140372400715801e+00  8.9746733819921705e+00  9.4944960802725991e+00  9.5262637501105729e+00  9.3987706897480336e+00  9.6005051873361644e+00  9.1530828360289398e+00  9.3174829606941962e+00  9.5682142283756413e+00  9.1342735521469258e+00  9.7470052903967090e+00  9.0007362057909699e+00  9.9911305565060449e+00  9.6284595083829672e+00  9.2990747528177966e+00  9.9018542810430432e+00  9.7145875745202090e+00  9.8974032363920994e+00  9.6509254512543485e+00  9.6608640851255636e+00  9.7910842262049371e+00  9.4587431802931867e+00  9.6527485818829781e+00  9.2785936343409734e+00  9.5458422959126388e+00  9.2159112243345866e+00  9.6442280713341173e+00  9.1533325758618869e+00  9.2241323286836163e+00  9.5242831855922727e+00  9.1650687313639203e+00  9.5886599462984723e+00  9.0920569346102091e+00  9.9381693296668701e+00  9.5759391069555129e+00  1.0079744180743731e+01  9.8401231508377460e+00  9.8635798088623279e+00  9.7037008131707196e+00  9.6463218350965771e+00  9.1722291532314184e+00  9.0992430916519247e+00  9.2504276191810870e+00  9.0059320732220325e+00  9.3703136320190108e+00  8.9837254511534841e+00  9.3202953043016965e+00  9.0810932892894947e+00  9.6863571937647777e+00  9.1128323125228938e+00  9.3453601108944682e+00  9.3496519240222362e+00  9.1338170097144395e+00  9.7400626893876936e+00  9.0197894853594178e+00  9.9861633648890553e+00  9.3169326609977041e+00  9.0546416256898148e+00  9.0949207976411230e+00  1.1615014023400759e+01  1.1256618610013540e+01  1.1496028809305077e+01  1.0781022654667705e+01  1.1134716971950516e+01  1.1193725337301466e+01  1.1394725530961775e+01  1.1604817006172320e+01  1.0211032372330214e+01  1.1202323470634294e+01  1.1018303846062548e+01  1.0137008556848244e+01  9.9979239778498172e+00  1.0229774862574372e+01  9.7953682289794628e+00  1.0235430042822928e+01  9.9963525179291430e+00  9.1243712268084476e+00  9.0503234220649578e+00  9.9125269731764867e+00  1.0468310776194228e+01  1.0525034707277960e+01  1.0159199948362966e+01  1.0389132912580433e+01  9.6954021837461575e+00  1.0458292124139954e+01  9.9657694401989474e+00  1.0276278959396715e+01  1.0363179047856919e+01  1.0022707643380672e+01  1.1070802531383222e+01  1.0825759283852397e+01  1.0641838728370265e+01  1.0907098497306073e+01  1.0919000294819726e+01  1.1073159932535757e+01  1.0986152111761317e+01  8.9660683936689463e+00  9.1516254181056969e+00  8.9635779065881476e+00  9.2500585285748649e+00  9.1321559181322574e+00  8.9995565294983457e+00  9.0237342951050401e+00  1.1128102263692934e+01  1.1266255047999550e+01  1.1170273732295669e+01  1.1003591994742493e+01  1.0854643906160325e+01  1.0700798182511795e+01  1.0853177745101043e+01  9.1712510887709655e+00  9.1468593961429132e+00  9.1295109973792190e+00  9.1506083470424251e+00  8.5321733848270487e+00  9.3599838463075820e+00  1.0603981576926424e+01  9.0439867755396577e+00  9.0180322742157983e+00  8.9015445891496956e+00  8.9782918271446857e+00  9.2119819370651772e+00  9.6636338809239977e+00  9.7251385865860662e+00  9.3945140608501791e+00  9.7490808764107406e+00  9.8723487824102527e+00  9.3009435840143784e+00  9.7572193201014574e+00  9.4400287873673125e+00  9.0212008470047031e+00  1.1293108766030452e+01  1.1266424362449010e+01  1.1119643745847732e+01  1.1204396125904239e+01  1.1230447880453204e+01  1.1242970483635998e+01  1.1336024797206893e+01  1.0843125389879049e+01  1.1098785228078450e+01  1.1184214636525692e+01  1.1155764484645635e+01  1.1010983412001913e+01  1.0044780804191978e+01  9.7998492143553975e+00  9.8143981241556819e+00  1.0156457502978956e+01  1.0177239506101031e+01  1.0132586282298780e+01  9.0128648476770916e+00  9.2215048109807203e+00  9.4557970142533279e+00  9.1712649934783901e+00  8.9236697275168257e+00  9.1868163944997150e+00  9.0585282297709231e+00  8.9978610035240489e+00  9.3230455514283026e+00  9.0514661038971074e+00  9.0594934239256908e+00  9.4892055095322139e+00  9.4564527562878631e+00  9.3546130270136469e+00  1.0090381083523067e+01  9.9052879643712046e+00  9.5935606503127655e+00  8.8140097290077808e+00  9.0135015353775643e+00  9.9699005990474721e+00  1.0297532733015611e+01  1.0562807763208443e+01  1.1058880950894409e+01  9.7965093358187278e+00  9.2384229392135371e+00  1.0419093998848020e+01  1.1248734479367627e+01  8.8883043638572232e+00  9.1249226116237061e+00  9.5099884345158383e+00  9.0893056259271638e+00  9.3587852659738360e+00  9.0441773444981610e+00  9.4718220740002899e+00  9.7105445453585393e+00  9.9303376545929734e+00  1.0109428263422195e+01  1.0100486009548911e+01  9.6988120736602941e+00  9.0283922718355623e+00  9.1404279080156332e+00  1.0181192981855958e+01  1.0542119084910688e+01  1.0556212573137529e+01  1.0050184686228594e+01  9.8682930150207753e+00  9.6166816734796310e+00  1.0003895516289024e+01  1.1115900830755773e+01  1.1333948852876434e+01  1.0613977810132441e+01  1.1091192212837386e+01  1.0980255477705983e+01  1.1295700190236152e+01  9.7961531422147807e+00  1.0646695150676921e+01  1.0705181901286748e+01  1.0552044203677704e+01  1.1015449162883050e+01  1.1052870414968048e+01  1.1111832315026424e+01  1.0951451169100269e+01  1.1353360958523021e+01  1.1449315564281623e+01  1.1200417030580745e+01  1.1202797049127531e+01  1.1088613353943455e+01  1.1100551489225664e+01  1.1265208104798150e+01  9.1770835087235589e+00  8.9648953902297297e+00  9.0209112389058106e+00  9.1443320474320533e+00  9.7631086877185354e+00  9.6862431882844398e+00  9.7377388320714644e+00  9.2055956652963804e+00  9.9598649087590854e+00  9.3440973884468086e+00  1.0292782066851963e+01  1.0324880489987855e+01  1.0217706633946881e+01  9.2043923320926542e+00  1.0423023425284171e+01  1.0330584684061133e+01  1.0340723951725630e+01  1.0172304367624161e+01  1.0216758353297280e+01  1.0257651605476632e+01  1.0346247418295977e+01  1.0817776454795721e+01  1.0892183839756587e+01  1.0627058095955942e+01  1.0961832573759249e+01  1.1022017528042603e+01  1.1066800956272795e+01  1.0044153210528261e+01  1.0058451741700004e+01  9.9247814393449847e+00  1.0807149543510304e+01  9.8839926150704986e+00  1.0242605206810548e+01  8.9256101884735219e+00  8.9329031091013693e+00  9.0857354887314354e+00  9.1998009835141676e+00  8.9575099021482316e+00  9.0552825801435475e+00  1.0004200313070355e+01  9.2797050046094114e+00  9.4843724076751688e+00  1.0162347376131057e+01  1.0092250746731548e+01  1.0081949150079522e+01  9.6296946815835884e+00  9.1648960005773379e+00  9.0765183792949529e+00  9.6598320034535767e+00  9.8258144160063647e+00  9.7929625632056538e+00  9.8141783674351668e+00  9.2928530668145886e+00  9.8825267620003849e+00  1.1366156151221981e+01  1.0946892403201389e+01  1.1493307340247132e+01  1.0841150984788049e+01  1.0076931840141091e+01  1.0623147052378750e+01  1.0684530184271566e+01  1.1254742551021632e+01  1.0897114656121433e+01  9.4584026628046498e+00  9.0849103980622967e+00  9.6213530806900120e+00  9.3433124461244734e+00  9.6174160853810680e+00  9.6790954159001927e+00  9.3465489283011784e+00  9.3941666943345066e+00  9.4950576832483247e+00  9.7831994612472570e+00  1.0043130128172209e+01  9.5238261071776051e+00  1.0304527551859914e+01  9.7223400941069418e+00  1.0187969850758435e+01  9.5302813966295155e+00  9.6964252925730143e+00  1.0653971182819294e+01  1.0668848137657854e+01  1.0944453130256850e+01  1.1015147545674461e+01  1.0714374245290038e+01  1.0765488801515520e+01  1.0838527690615988e+01  1.0795392566343645e+01  1.0035159777052472e+01  9.1000104647294950e+00  8.9184095704037798e+00  9.1431984041439502e+00  1.0180255613534753e+01  1.1065291155229943e+01  1.0564614189259064e+01  9.9047431040824154e+00  9.9699403869832768e+00  9.8919865601667638e+00  1.0102906299568481e+01  1.0062328553844413e+01  1.0122248975026338e+01  9.4275555746876698e+00  9.9982507632980422e+00  1.0132840687864682e+01  9.6536010239304062e+00  1.0472360986417582e+01  1.0511523518257418e+01  9.5102144713425307e+00  9.3534546886493946e+00  1.0843928113020420e+01  1.0239095419036635e+01  1.0950432242253795e+01  8.9899197254064855e+00  9.0509167163691178e+00  1.0424875021832680e+01  1.1114613250193825e+01  1.1214141292113437e+01  9.9695104698175534e+00  9.3275842712185550e+00  9.0287228650787128e+00  9.6321667915455258e+00  9.5679796326166944e+00  1.0149014533131218e+01  9.6358812425919158e+00  9.8403801437824505e+00  9.4864527582272373e+00  9.1083884467796619e+00  9.0028750602776739e+00  9.2662603379982293e+00  9.3657370710342907e+00  9.2615182935173674e+00  9.3777009465350059e+00  9.5420208178259287e+00  1.0619289955449426e+01  1.0640232394352211e+01  1.0748921306695973e+01  1.0099880720904903e+01  9.9304597187830819e+00  9.1484521186546122e+00  1.0672250762366081e+01  1.0548809105579720e+01  1.1035418071318835e+01  9.1674868372120528e+00  1.0647684724553418e+01  9.8673586513200142e+00  9.4223912922564459e+00  9.8463037792568731e+00  1.1133887452094109e+01  1.0029274729646882e+01  8.9852119832966615e+00  8.9863770439237598e+00  8.9485662407047890e+00  9.0052592972599950e+00  9.5542813503997088e+00  8.9856446794945857e+00  9.4704719693102959e+00  9.0104142337946858e+00  9.6473854495629876e+00  8.8693988809186539e+00  9.1395777899140462e+00  9.2476965612736954e+00  9.1166382062492115e+00  8.9549479057497159e+00  9.5032025821868338e+00  9.1399258046125684e+00  1.0986357193128507e+01  1.0813399078929809e+01  1.0981416506641239e+01  1.0531374883206823e+01  1.0913432037390123e+01  1.0936518148668583e+01  1.1242932275385337e+01  1.0922843279575854e+01  9.5075074381234099e+00  9.4184759784230270e+00  9.2493518838397204e+00  9.8110009772706075e+00  9.2291297497918130e+00  9.5749986908441027e+00  1.0043387643425552e+01  9.8851218928257349e+00  1.1033734613976449e+01  1.1397510249748894e+01  1.1320703196503583e+01  1.1215868366349962e+01  1.1265487046444767e+01  1.0983777821572978e+01  1.1325636358655494e+01  1.0925722436869282e+01  1.1531530910588494e+01  1.0810696525040653e+01  1.1536724819827638e+01  1.0455159066958950e+01  1.0345921546413331e+01  1.0805146952855345e+01  9.9773538196570222e+00  9.6797842848552591e+00  9.5889103056060527e+00  1.0119417167713438e+01  1.0096625088930187e+01  9.8056234847071142e+00  9.7368950943848205e+00  1.0573957524252085e+01  1.0095347398382042e+01  1.0464371725511278e+01  1.0488863269299333e+01  1.0251773212481574e+01  1.0026424819417075e+01  1.0379643745705010e+01  9.6728624397540788e+00  9.8065976797358889e+00  9.9197214289454969e+00  9.1138521607664078e+00  9.0599784664733125e+00  9.7164185472578808e+00  1.0118545222954914e+01  9.0053087553163618e+00  9.0046691970571811e+00  9.0909346343469544e+00  9.2702201160178337e+00  9.0656327251674149e+00  9.1608786285408641e+00  9.6771109817686281e+00  9.4162457340811834e+00  8.9054615650664708e+00  8.9892245937804258e+00  9.1443336755898201e+00  9.5107922686445594e+00  9.5665732133106296e+00  9.3235580591694056e+00  1.1202691688138989e+01  1.1062541089614491e+01  1.0748590570021353e+01  1.1210790923277843e+01  1.1071158626226232e+01  1.0685774988119622e+01  1.1035734401516820e+01  9.9120733223248187e+00  9.0144408670890801e+00  9.1650425645822029e+00  9.4980808271472004e+00  1.0733960417120569e+01  9.8066899747226977e+00  1.0675848239185884e+01  1.0505736732582903e+01  1.0972620762736838e+01  1.0654447752930517e+01  1.1335589893421513e+01  1.0157094274794293e+01  1.0898723071105467e+01  1.0889585668722491e+01  1.0827390938913139e+01  1.0853350696434065e+01  9.7913946057953716e+00  1.0088521366974991e+01  9.8732257840269355e+00  9.8766470264938171e+00  9.1750379574443546e+00  9.5419648439876852e+00  9.6710976927997461e+00  9.9781064220788025e+00  9.1042908872771182e+00  8.9489720257575840e+00  8.9848681430712158e+00  9.3618087729569694e+00  1.0203851442243881e+01  9.9729572821576067e+00  1.0144307127489894e+01  1.0140837724240678e+01  1.0896405507261257e+01  1.1261047534996353e+01  1.0992139552789915e+01  1.1330360214284443e+01  1.0911790735454776e+01  1.0989837535819076e+01  1.0937497683671014e+01  1.0590171022592841e+01  9.7692531894875660e+00  9.2528210108762075e+00  1.0481540912308246e+01  1.0109339740450727e+01  1.0654507403716980e+01  9.7831694956908564e+00  1.0064632224020786e+01  9.1898348908513601e+00  9.6639541618974345e+00  9.6802898857414572e+00  1.0103319840113535e+01  9.8220028522102751e+00  9.7898927570290972e+00  1.1296246950322338e+01  1.1323678349262128e+01  1.1427386390552442e+01  1.1115828382537540e+01  1.0518518983408516e+01  1.1219563193027415e+01  1.1374620111774759e+01  1.0216053258864228e+01  1.0622953750959654e+01  1.0355883966217418e+01  1.0649675933521248e+01  1.0487320999120847e+01  9.8414960463179089e+00  1.0077099669921564e+01  9.0487824141376887e+00  1.0836929421221949e+01  1.0934830475921078e+01  1.0896636106857988e+01  1.0942531669939768e+01  1.0275777954808044e+01  1.1084981771117846e+01  1.0787569121845209e+01  1.1085475082860592e+01  9.2981334276360617e+00  1.0105333806024749e+01  1.0283611684998586e+01  9.0830298163220462e+00  1.0127356934503601e+01  1.0312360969039512e+01  1.0205157464313963e+01  9.1294992722555630e+00  9.0154420292589688e+00  9.5114383164598753e+00  9.0789843597099473e+00  9.0267793422557947e+00  9.1043021066141261e+00  9.3911818066452817e+00  8.9562466223627037e+00  9.0624352654701088e+00  9.0698220495349364e+00  9.1896118752083176e+00  9.1102639114308825e+00  8.9276678368024562e+00  9.2357459716368133e+00  8.9041491363632641e+00  1.0516682387147195e+01  1.0023064049877542e+01  1.0310082470360337e+01  1.0043718243774570e+01  1.0106155388546993e+01  1.0032243100708838e+01  9.2576576270672266e+00  1.0536965078763053e+01  9.9899047212456757e+00  8.9863982314078736e+00  9.3308426831251339e+00  1.0663393857413087e+01  9.1662833470135148e+00  9.5103173100999125e+00  9.1889088094058451e+00  9.5374561711891417e+00  9.3154447323847229e+00  9.6594231999113003e+00  1.0120513178856800e+01  1.0109875894939474e+01  9.3623113548763648e+00  1.0615049038841823e+01  9.5913618968796914e+00  1.0169262498461974e+01  1.0277789943349012e+01  9.0538914228575980e+00  9.0301859235358108e+00  8.9845143194467116e+00  8.9050994086002344e+00  9.7882896452041148e+00  8.9348503455695827e+00  9.4012109471340626e+00  1.1340952724633299e+01  1.1147899973656294e+01  1.0554524265510162e+01  1.0971369501306057e+01  1.0935965200860648e+01  1.0811755682611794e+01  1.1038516326382371e+01  9.8321080096960163e+00  1.0231254354385740e+01  9.6262574895236845e+00  1.0430251933243841e+01  1.0731578122902116e+01  1.0246741353679676e+01  1.0533326448232014e+01  1.0733839663029764e+01  1.1479509016492157e+01  1.1376141618920418e+01  1.1080489903642892e+01  1.0706778920747025e+01  1.0195994700391925e+01  1.0421515082157288e+01  9.8164846449753931e+00  9.1874594274314401e+00  1.0211205934480176e+01  9.1377241649064533e+00  1.0101610959193859e+01  9.9915499016882343e+00  9.7881344607817624e+00  1.1363357883274041e+01  1.1547945882268762e+01  1.1255720154813304e+01  1.1123219966053465e+01  1.1098059129526339e+01  1.1045571500509457e+01  1.1101420338512524e+01  9.1216650946047277e+00  1.0331237820291411e+01  9.6805584304427654e+00  9.6043120158684712e+00  9.0236816789417595e+00  9.1059846299579874e+00  9.0196813467105788e+00  1.1407872132705601e+01  1.1156840070046217e+01  1.1012127756679195e+01  1.0890863730964405e+01  1.1236197684827088e+01  1.1154511841787766e+01  9.1096143760462489e+00  9.7338934812220437e+00  9.96619287509