<?xml version="1.0"?>
<VTKFile type="UnstructuredGrid"  version="0.1"  >
<UnstructuredGrid>
<Piece  NumberOfPoints="1416" NumberOfCells="2750">
<Points>
<DataArray  type="Float64"  NumberOfComponents="3"  format="ascii">10000 0 0  9969.173337331546 784.5909572750695 0  9440.811062854247 337.8086441165926 0  9969.173337331289 -784.5909572783328 0  9119.461671696214 -436.047325602827 0  0 10000 0  784.5909572783328 9969.173337331289 0  436.0473256028242 9119.461671696214 0  -784.5909572750695 9969.173337331546 0  -337.8086441165958 9440.811062854247 0  -10000 0 0  -9969.173337331289 784.5909572783328 0  -9119.461671696214 436.0473256028198 0  -9969.173337331546 -784.5909572750695 0  -9440.811062854247 -337.8086441165943 0  0 -10000 0  -784.5909572783328 -9969.173337331289 0  -436.0473256028237 -9119.461671696215 0  784.5909572750695 -9969.173337331546 0  337.8086441165926 -9440.811062854247 0  1000 0 0  825.5112685286344 233.2965221726817 0  1210.652051555102 178.7580587220347 0  758.3105164940762 -28.48526495347746 0  1257.782871779572 -45.21674913664203 0  853.1788281180126 -255.1195435303564 0  1122.147561214101 -201.3091483794531 0  0 1000 0  -224.5942532759738 814.142362917265 0  28.69055186178868 757.9412270694447 0  -193.2123325114539 1112.182883894174 0  179.7197598806582 1215.220055532552 0  249.331013302979 860.3118401498294 0  -37.93559097040777 1253.495422595633 0  -1000 0 0  -824.851195817888 -232.1783906338463 0  -1210.595922923236 -178.6629795095487 0  -757.4575350892064 29.53393923004192 0  -1257.504710586107 45.16695969320045 0  -851.7633041405784 248.1772228548502 0  -1120.885945661195 200.0563625481669 0  0 -1000 0  249.0340813110638 -842.6509245101993 0  180.0207135594895 -1211.849580489497 0  18.33127838206231 -719.7561862243336 0  -45.09404287730242 -1257.692498219919 0  -252.413804548122 -852.0675834927048 0  -200.9036788868213 -1120.94680153162 0  2000 0 0  1712.325186787277 -225.5688316983879 0  1949.292517575665 -404.0263120746235 0  1758.092477153796 22.27922893435602 0  2220.4090632581 -278.1657736385001 0  2264.940937824128 12.17221832991 0  2022.901005636987 245.209440425862 0  0 2000 0  301.9748726397239 1740.654411212139 0  1.120723757020302e-12 1745.628282521672 0  388.8436927040806 1995.749174184361 0  -265.4266168243358 2269.848489623402 0  -269.5511398733495 1970.956450977053 0  14.70097338908518 2279.104059422062 0  278.8454224092475 2226.372287316351 0  -2000 0 0  -1712.325186787277 225.5688316983877 0  -1949.292517575666 404.026312074623 0  -1758.092477153796 -22.27922893435661 0  -2220.4090632581 278.1657736385 0  -2264.940937824128 -12.1722183299102 0  -2022.901005636987 -245.2094404258624 0  0 -2000 0  -225.5688316983879 -1712.325186787277 0  -404.0263120746235 -1949.292517575665 0  22.17353424893216 -1758.317218185472 0  -278.1657736385001 -2220.4090632581 0  12.17221832991003 -2264.940937824128 0  245.209440425862 -2022.901005636987 0  9876.883405952116 1564.344650397643 0  9413.741379249825 893.2779112941004 0  9723.699203978225 2334.453638552975 0  9281.686298197614 1862.981019420672 0  8978.354407498971 1302.212327038938 0  9510.565162954143 3090.169943741452 0  9171.616356661538 2425.460729511194 0  9238.7953251169 3826.834323641162 0  8786.327444180986 2855.609134985008 0  8910.065241889364 4539.904997384312 0  8576.420325493971 4088.764306853787 0  8462.074319507847 3512.480585282223 0  8526.40164354859 5224.985647146975 0  8380.046298293893 4548.240288757754 0  8090.169943758854 5877.852522911823 0  7683.770966481169 5298.80797610165 0  7874.660194180307 4750.86281684807 0  7604.059656011831 6494.480483288346 0  7228.811045347766 5749.151035153302 0  7071.067811878895 7071.067811852055 0  6882.490700411468 6265.549259424126 0  6494.480483314509 7604.059655989487 0  6558.565613988438 6766.215058556128 0  5877.852522936711 8090.169943740771 0  5735.388635244923 7423.195460774175 0  5981.697728245949 6848.506665974658 0  5224.985647170473 8526.401643534191 0  5307.257413765717 7837.676472666109 0  4539.904997404682 8910.065241878983 0  4613.173854048643 7930.353439924153 0  3826.834323658716 9238.79532510963 0  3877.010908226574 8367.304709936669 0  3090.169943755497 9510.565162949579 0  3395.404259564986 8853.279745804064 0  2334.4536385629 9723.699203975842 0  2848.849836324876 8831.763646725167 0  1564.34465040468 9876.883405951001 0  1666.047411844783 9306.350461236803 0  2135.463838140692 8932.199249345211 0  1138.519892287582 9404.047671358992 0  -1564.344650397643 9876.883405952116 0  -893.2779112941062 9413.741379249825 0  -2334.453638552975 9723.699203978225 0  -1862.981019420678 9281.686298197616 0  -1302.212327038943 8978.354407498971 0  -3090.169943741452 9510.565162954143 0  -2425.460729511197 9171.61635666154 0  -3826.834323641162 9238.7953251169 0  -2855.609134985011 8786.32744418099 0  -4539.904997384312 8910.065241889364 0  -4088.764306853793 8576.420325493971 0  -3512.480585282231 8462.074319507852 0  -5224.985647146975 8526.40164354859 0  -4548.240288757759 8380.046298293893 0  -5877.852522911823 8090.169943758854 0  -5298.807976101652 7683.770966481165 0  -4750.862816848074 7874.660194180306 0  -6494.480483288346 7604.059656011831 0  -5749.151035153306 7228.811045347762 0  -7071.067811852055 7071.067811878895 0  -6265.549259424123 6882.490700411468 0  -7604.059655989487 6494.480483314509 0  -6766.215058556127 6558.565613988435 0  -8090.169943740771 5877.852522936711 0  -7423.195460774181 5735.388635244917 0  -6848.506665974661 5981.697728245946 0  -8526.401643534191 5224.985647170473 0  -7837.676472666112 5307.257413765715 0  -8910.065241878983 4539.904997404682 0  -7930.353439924156 4613.173854048636 0  -9238.79532510963 3826.834323658716 0  -8367.304709936674 3877.010908226573 0  -9510.565162949579 3090.169943755497 0  -8853.279745804064 3395.404259564985 0  -9723.699203975842 2334.4536385629 0  -8831.763646725163 2848.849836324873 0  -9876.883405951001 1564.34465040468 0  -9306.350461236801 1666.047411844779 0  -8932.199249345213 2135.463838140684 0  -9404.047671358992 1138.519892287579 0  -9876.883405952116 -1564.344650397643 0  -9413.741379249826 -893.2779112941001 0  -9723.699203978225 -2334.453638552975 0  -9281.686298197616 -1862.981019420666 0  -8978.354407498975 -1302.212327038933 0  -9510.565162954143 -3090.169943741452 0  -9171.61635666154 -2425.460729511192 0  -9238.7953251169 -3826.834323641162 0  -8786.32744418099 -2855.609134985002 0  -8910.065241889364 -4539.904997384312 0  -8576.420325493969 -4088.764306853795 0  -8462.074319507856 -3512.480585282229 0  -8526.40164354859 -5224.985647146975 0  -8380.046298293893 -4548.240288757762 0  -8090.169943758854 -5877.852522911823 0  -7683.770966481169 -5298.807976101652 0  -7874.660194180307 -4750.862816848075 0  -7604.059656011831 -6494.480483288346 0  -7228.811045347765 -5749.151035153303 0  -7071.067811878895 -7071.067811852055 0  -6882.490700411463 -6265.549259424131 0  -6494.480483314509 -7604.059655989487 0  -6558.565613988436 -6766.215058556136 0  -5877.852522936711 -8090.169943740771 0  -5735.388635244922 -7423.195460774175 0  -5981.697728245952 -6848.506665974656 0  -5224.985647170473 -8526.401643534191 0  -5307.257413765717 -7837.676472666109 0  -4539.904997404682 -8910.065241878983 0  -4613.173854048643 -7930.353439924151 0  -3826.834323658716 -9238.79532510963 0  -3877.010908226574 -8367.304709936669 0  -3090.169943755497 -9510.565162949579 0  -3395.404259564985 -8853.279745804059 0  -2334.4536385629 -9723.699203975842 0  -2848.849836324873 -8831.763646725161 0  -1564.34465040468 -9876.883405951001 0  -1666.047411844782 -9306.350461236796 0  -2135.463838140686 -8932.199249345209 0  -1138.519892287581 -9404.047671358991 0  1564.344650397643 -9876.883405952116 0  893.2779112940983 -9413.741379249826 0  2334.453638552975 -9723.699203978225 0  1862.981019420666 -9281.686298197616 0  1302.212327038932 -8978.354407498975 0  3090.169943741452 -9510.565162954143 0  2425.460729511192 -9171.61635666154 0  3826.834323641162 -9238.7953251169 0  2855.609134985002 -8786.32744418099 0  4539.904997384312 -8910.065241889364 0  4088.764306853795 -8576.420325493969 0  3512.480585282229 -8462.074319507856 0  5224.985647146975 -8526.40164354859 0  4548.240288757762 -8380.046298293893 0  5877.852522911823 -8090.169943758854 0  5298.807976101651 -7683.770966481169 0  4750.862816848074 -7874.660194180306 0  6494.480483288346 -7604.059656011831 0  5749.151035153302 -7228.811045347768 0  7071.067811852055 -7071.067811878895 0  6265.54925942412 -6882.490700411468 0  7604.059655989487 -6494.480483314509 0  6766.215058556126 -6558.56561398844 0  8090.169943740771 -5877.852522936711 0  7423.195460774175 -5735.388635244922 0  6848.506665974652 -5981.697728245953 0  8526.401643534191 -5224.985647170473 0  7837.676472666108 -5307.257413765719 0  8910.065241878983 -4539.904997404682 0  7930.353439924147 -4613.173854048646 0  9238.79532510963 -3826.834323658716 0  8367.304709936667 -3877.010908226576 0  9510.565162949579 -3090.169943755497 0  8853.279745804059 -3395.404259564986 0  9723.699203975842 -2334.4536385629 0  8831.76364672516 -2848.849836324872 0  9876.883405951001 -1564.34465040468 0  9306.350461236796 -1666.047411844782 0  8932.199249345209 -2135.463838140685 0  9404.047671358989 -1138.519892287582 0  3890.561977844704 -3980.209838863507 0  3378.112472111499 -3620.467011831335 0  3865.652261003032 -3450.186185358944 0  3413.999318598406 -4024.335624504108 0  4503.212714161729 -3720.115308817993 0  4398.512117453444 -4241.925396324142 0  3572.533128876644 -4426.573998554646 0  3995.622341410154 -4399.580205031658 0  -3980.209838863506 -3890.561977844704 0  -3620.467011831334 -3378.112472111499 0  -3450.186185358944 -3865.652261003033 0  -4024.335624504107 -3413.999318598408 0  -3720.115308817994 -4503.21271416173 0  -4241.925396324144 -4398.512117453445 0  -4426.573998554645 -3572.533128876645 0  -4399.580205031658 -3995.622341410156 0  3980.209838863507 3890.561977844706 0  3620.467011831334 3378.
[...]
<PointData  Scalars="f_503862"> 
<DataArray  type="Float64"  Name="f_503862"  format="ascii">9.8317411166179607e+00  9.4709418112412660e+00  9.2170084630337357e+00  9.6974507189633776e+00  1.0079515914048747e+01  1.0426048625371140e+01  1.0522736586763370e+01  1.0233180265997028e+01  1.0385648377762895e+01  1.0398305954460675e+01  1.0827265519468980e+01  1.0338631737498931e+01  1.1062062348381655e+01  1.0769647883971944e+01  1.1049202703621267e+01  1.0024360698686197e+01  1.0124216501126050e+01  9.7657845219402084e+00  9.7843162948503863e+00  9.5933386768393305e+00  8.9522187817068222e+00  9.1983287544769023e+00  8.9413703233121389e+00  9.0621817577769193e+00  8.9106659010938252e+00  8.9458218462012855e+00  8.9106953610437092e+00  1.0806641708295912e+01  1.0862542867283736e+01  1.0531437088176085e+01  1.1148602366493577e+01  1.0959484952336826e+01  1.0471579209141854e+01  1.1181963300906940e+01  1.0120323050259561e+01  9.4827668285154729e+00  1.0140309299485693e+01  9.8742881792692057e+00  1.0469969103406470e+01  1.0462331576443411e+01  1.0651968944327775e+01  9.6737674851730784e+00  9.5016426105075258e+00  9.9574445435651135e+00  9.3977022887634671e+00  9.8787807050060543e+00  9.4821780614482467e+00  9.7184279168665917e+00  8.9040678576085934e+00  8.9314498775675624e+00  9.2194544438893793e+00  8.9473954589898561e+00  9.4211768209008984e+00  9.0954671950466235e+00  8.9768515747810351e+00  1.1066416597258160e+01  1.1151881108345682e+01  1.1395175311605206e+01  1.0228155084543623e+01  1.0943652609857972e+01  1.1090744612531275e+01  1.0823563816281235e+01  1.0305048533279576e+01  1.0804581319197537e+01  1.1013189625171208e+01  1.1206235541868514e+01  1.0549387476468292e+01  1.1201601938801971e+01  1.1104068831217658e+01  1.0142480756030949e+01  1.0016100279581423e+01  9.9668466229311043e+00  9.9308728211847885e+00  1.0109910852818933e+01  9.9886365835358877e+00  9.8263241482000225e+00  9.8925454874409606e+00  9.4994297286392744e+00  8.9221355971399348e+00  1.0353232224245680e+01  9.7640357836269676e+00  9.1017612657430025e+00  1.0613895553272023e+01  1.0444280414803446e+01  1.0491463393268548e+01  1.0696931132007672e+01  1.0549425727163138e+01  1.0554596287050163e+01  1.0529793892189572e+01  1.0106631786473978e+01  1.0425943414208122e+01  9.8818775482235175e+00  9.4634121343286175e+00  1.0028331802432735e+01  1.0502953571114823e+01  9.9498579402748586e+00  1.0795125825723145e+01  1.0739164939356293e+01  1.0762402008681057e+01  1.1001604253076170e+01  1.0420497707059953e+01  1.0694547737442559e+01  1.1080039785883216e+01  1.0000753421927115e+01  1.0150245886474421e+01  1.0175607319680816e+01  9.6105823133310846e+00  1.0482093636812570e+01  1.0080090073594633e+01  1.0402919417866540e+01  1.0387163745623251e+01  1.0367107217028435e+01  1.0149026135686036e+01  1.0453271580625815e+01  1.0179813847910431e+01  9.8283016386690178e+00  1.0318789584271732e+01  1.0394377099925022e+01  1.0404581115990677e+01  1.0374860203944698e+01  1.0393073774950933e+01  1.0268832952189523e+01  1.0358913224484937e+01  1.0393254419032315e+01  1.0352551460232208e+01  1.0397121054377768e+01  1.0396299278660331e+01  1.0349690645402715e+01  1.0364485203322577e+01  1.0377204371809487e+01  1.0339686128578217e+01  1.0197061214335045e+01  1.0096970380276115e+01  1.0252237052299300e+01  1.0025315155314988e+01  9.8744859427686666e+00  1.0075937294205064e+01  9.8557796909739928e+00  1.0353491488133759e+01  9.9811978890533002e+00  1.0311504580537163e+01  1.0211283437514075e+01  1.0078956417474513e+01  9.9215015661062278e+00  9.9163475382081216e+00  9.9731894610178777e+00  9.5332995373015361e+00  1.0272470201653867e+01  9.9384495435469411e+00  9.7754320521103963e+00  9.7378151275230653e+00  9.7903196074831218e+00  9.2884318058293331e+00  9.7871877295687852e+00  9.5419035807785484e+00  9.6523590395877434e+00  9.9312292452265982e+00  1.0615329749790297e+01  1.0773359065653825e+01  1.0693194452533060e+01  1.0717265200260803e+01  1.0449838908603288e+01  1.0736006176303233e+01  1.0848547000473630e+01  1.0829707685824637e+01  1.0890112825128343e+01  1.0873303087179689e+01  1.1072853561732128e+01  1.1075382540341650e+01  1.0529883682241939e+01  1.0973851062188414e+01  9.7600139702858275e+00  9.6433345197509457e+00  1.0648787395776720e+01  9.6410740552969560e+00  9.1237799827752752e+00  9.6108855903710850e+00  9.1293526990930420e+00  9.6834651547793058e+00  9.1327520462344278e+00  1.0047364206752368e+01  9.6271130451136848e+00  9.1547372328915948e+00  9.7033608513944731e+00  9.6978328539327361e+00  9.4789278974032847e+00  9.1387293692686082e+00  9.5756648160366584e+00  9.1400721603718704e+00  9.5327884681793478e+00  9.1589154444951717e+00  9.4066966852779963e+00  8.9201199106822582e+00  9.6636055691850746e+00  9.1111488560845899e+00  8.9821474482282166e+00  9.4678058656536273e+00  9.4813892738387509e+00  9.3986290259393144e+00  9.5945424710050631e+00  9.1410871799990705e+00  9.3196195616371131e+00  9.5796673699285222e+00  9.1450704602316506e+00  9.7570988723681928e+00  9.0281446778131649e+00  9.9888816171416952e+00  9.6271439165032415e+00  9.3057462363390346e+00  9.9286940778651314e+00  9.7115484722352043e+00  9.9349082297097180e+00  9.6716216581249714e+00  9.6445181495094428e+00  9.8067846672625869e+00  9.4694211715348775e+00  9.6754827889999877e+00  9.2988979104715490e+00  9.5618434316154932e+00  9.2461553205428348e+00  9.6535046809483305e+00  9.1637058223422123e+00  9.2433211695872419e+00  9.5404142866665929e+00  9.1736051628495066e+00  9.6052942641182977e+00  9.0872280436632344e+00  9.9360414182572825e+00  9.5714194516068858e+00  1.0067776256920457e+01  9.8260982358790123e+00  9.8295156242670014e+00  9.6976482691760868e+00  9.6423390492046224e+00  9.1773883923005162e+00  9.1133722078842876e+00  9.2552110196608499e+00  9.1069545556188345e+00  9.3193116359335360e+00  8.9349335260801404e+00  9.1672423977893605e+00  9.0513956023196336e+00  9.6514267147386903e+00  9.1665865201266801e+00  9.3390699023803201e+00  9.3247194965106051e+00  9.0165343209604103e+00  9.8424937810437676e+00  8.9866088830556485e+00  9.9073282098752866e+00  9.3164775746199524e+00  8.9478488931033766e+00  9.0876493876562705e+00  1.1633031646807881e+01  1.1201126188077685e+01  1.1545607703757199e+01  1.0665336815492672e+01  1.1089946057642988e+01  1.1137311894696406e+01  1.1381519081807097e+01  1.1621207339373967e+01  1.0164561465189955e+01  1.1243367961799622e+01  1.1003532947951358e+01  1.0215759528402854e+01  1.0020510616266487e+01  1.0236436559448965e+01  9.7335176236929399e+00  1.0180965160724027e+01  9.9978047320258980e+00  9.1414426938708520e+00  8.9425778195053685e+00  9.8829770023139698e+00  1.0384121131654483e+01  1.0566838617077909e+01  1.0166626567378604e+01  1.0385763578255492e+01  9.6724638918568360e+00  1.0452977430273123e+01  1.0017480887694587e+01  1.0239723817398149e+01  1.0350690436235160e+01  1.0044700800502923e+01  1.1073137212822337e+01  1.0828056659136784e+01  1.0671023729356786e+01  1.0910675209224667e+01  1.0931386859837485e+01  1.1081373141734167e+01  1.0996964115485298e+01  8.9920368564048019e+00  9.0771880369866977e+00  8.9948868981284420e+00  9.2917000002905432e+00  9.1493186314588648e+00  8.9521083704502651e+00  9.0243682351803720e+00  1.1040000685718347e+01  1.1210209186330768e+01  1.1190489375146425e+01  1.0953666626391712e+01  1.0895183761852600e+01  1.0760626610306357e+01  1.0981243733625378e+01  8.9849695375467515e+00  9.1520784925747520e+00  8.9881206551148090e+00  9.2264020512075504e+00  8.7013020218019772e+00  9.2417560152106937e+00  1.0616473093534266e+01  9.1096528825644540e+00  8.9343366510553803e+00  8.7866124479483325e+00  9.1360318757976273e+00  9.1323440740589348e+00  9.6405793396161759e+00  9.6778387872922469e+00  9.3260097233291326e+00  9.9229659947858355e+00  9.7464877711738946e+00  9.3318726640680350e+00  9.6688792606292129e+00  9.4317100098033269e+00  9.0238617967541703e+00  1.1296909355909786e+01  1.1229462578640248e+01  1.1133320727355407e+01  1.1262907796764305e+01  1.1220260163551222e+01  1.1237268536856222e+01  1.1328449219911297e+01  1.0842429660487536e+01  1.1057260543358582e+01  1.1193318490834841e+01  1.1155372818574538e+01  1.1043723019067984e+01  1.0081250655177682e+01  9.7301477509850045e+00  9.8968219592825033e+00  1.0197320131980559e+01  1.0202510949690167e+01  1.0151370236807661e+01  9.0089450451762350e+00  9.2733492239109410e+00  9.4674616821427744e+00  9.1251755447945833e+00  8.8987408015774285e+00  9.1282200222547214e+00  8.9922827097979710e+00  9.0253273432547925e+00  9.2775800041753893e+00  9.0333076185354582e+00  9.0832827694883154e+00  9.4817973853057449e+00  9.4162395328134654e+00  9.2779824897432626e+00  1.0048538707328628e+01  9.8257605573366789e+00  9.5704914967259249e+00  8.7975864720374872e+00  9.0433791644926682e+00  9.9536746803800629e+00  1.0297147033255834e+01  1.0559689678584599e+01  1.1023009914447313e+01  9.7679427280217084e+00  9.2973032817424066e+00  1.0479016021331327e+01  1.1188910110284549e+01  8.9345116835010590e+00  9.1625214517125837e+00  9.5358343886467694e+00  9.0617771740531623e+00  9.3288683047339518e+00  9.0158213587439668e+00  9.5035682826220018e+00  9.6724528146293824e+00  9.8737649981996469e+00  1.0110201933654448e+01  1.0105121365216265e+01  9.6783846994201461e+00  9.0197239971881462e+00  9.2468969085240431e+00  1.0244648328055472e+01  1.0513141433578868e+01  1.0515768685723959e+01  1.0094068200475805e+01  9.8846356056676008e+00  9.6734721720714223e+00  9.9765298510659530e+00  1.1095814474503642e+01  1.1371534997442241e+01  1.0667645296642897e+01  1.1084931966564284e+01  1.0985978634465196e+01  1.1324814339020330e+01  9.7570988435256591e+00  1.0670013815525083e+01  1.0757976831198420e+01  1.0573286685218340e+01  1.1027056529491965e+01  1.1075453148833592e+01  1.1145373994307219e+01  1.0932590072049601e+01  1.1298955016281742e+01  1.1426164814840540e+01  1.1237905831409424e+01  1.1214554800759149e+01  1.1073705100747290e+01  1.1074524826210837e+01  1.1301096840899202e+01  9.1439596455250456e+00  8.9563040275365857e+00  9.0361889866993668e+00  9.1788790780806906e+00  9.7900816187135682e+00  9.6566127336663072e+00  9.7479000886002396e+00  9.1029282622416634e+00  1.0055287094128696e+01  9.3585822240587557e+00  1.0248212644059594e+01  1.0360215327114899e+01  1.0178676632847189e+01  9.1913609090777264e+00  1.0406018719008689e+01  1.0321026808528094e+01  1.0338554741253581e+01  1.0212128983977937e+01  1.0211890838622248e+01  1.0206690305051547e+01  1.0349321969414410e+01  1.0846871577120389e+01  1.0910287005436592e+01  1.0630544709082036e+01  1.0967300504489586e+01  1.1020571271635088e+01  1.1145641026323922e+01  9.9493047835698611e+00  1.0180472847999772e+01  9.8922377806764441e+00  1.0714309869225882e+01  9.8443299653063896e+00  1.0086515950158532e+01  8.9548408583217913e+00  8.9355301542025298e+00  9.2232804951001466e+00  9.1985522792993457e+00  9.0097184420355525e+00  8.9267829601422246e+00  9.9707842676481686e+00  9.4473190110878580e+00  9.6134599850099267e+00  1.0091531292269137e+01  1.0128827963478923e+01  1.0063015965726121e+01  9.6415270264431321e+00  9.1271656692112551e+00  9.0746123830795575e+00  9.6467179702015677e+00  9.7854827385670582e+00  9.7673700873543510e+00  9.7968912294550385e+00  9.3129194957665185e+00  9.8735561127494744e+00  1.1377852903647875e+01  1.0949064356480253e+01  1.1484552196312555e+01  1.0870774633832388e+01  1.0059477336980262e+01  1.0591486650174270e+01  1.0680632157689869e+01  1.1231006248012784e+01  1.0877049695028106e+01  9.4250437442936619e+00  9.0984582704987265e+00  9.6437372706891971e+00  9.3879424430169376e+00  9.5968338372287487e+00  9.6966245305741001e+00  9.3362667762535700e+00  9.4212529899554909e+00  9.5837425868943011e+00  9.7642952716934914e+00  1.0030052473148821e+01  9.5489913532833235e+00  1.0338291239196613e+01  9.7412113308399562e+00  1.0207029621947637e+01  9.5477496712464909e+00  9.6986542454906992e+00  1.0634447888151573e+01  1.0737960551651744e+01  1.0889902020511881e+01  1.0932440572076491e+01  1.0723678296303111e+01  1.0725487896998343e+01  1.0864972064030924e+01  1.0810763099775098e+01  1.0041508710523537e+01  9.0606167721705528e+00  9.0605545438615991e+00  9.1115414672828212e+00  1.0164583876173493e+01  1.1099335331647049e+01  1.0505493262933742e+01  9.9455735507591747e+00  9.9707171729034823e+00  9.7783194120299424e+00  1.0061996725200206e+01  1.0037577875680302e+01  1.0129332512348050e+01  9.4937535260919095e+00  9.9646022849131057e+00  1.0107555478546541e+01  9.6903502750779449e+00  1.0470827581999028e+01  1.0516468019134543e+01  9.3774102154194221e+00  9.2829961018977070e+00  1.0874946774946586e+01  1.0301044476018548e+01  1.0978389343085990e+01  9.2333385965881494e+00  8.9213913084428746e+00  1.0306778711640165e+01  1.1067138578146908e+01  1.1156269369764576e+01  9.9830198386506694e+00  9.2804941917294901e+00  9.0792191936288198e+00  9.6133333588400856e+00  9.5599771777214517e+00  1.0144651593042115e+01  9.5003714943001665e+00  9.8856002267166314e+00  9.4692868188675803e+00  9.1032576448655345e+00  8.9409111314198224e+00  9.2879818194656618e+00  9.4195464804158355e+00  9.2532574216308774e+00  9.3501983026887814e+00  9.4645223979845738e+00  1.0614131675580104e+01  1.0691165808264085e+01  1.0731884055373445e+01  1.0102714342412089e+01  9.9506876877155594e+00  9.1943983451000175e+00  1.0705724938300959e+01  1.0527812692889146e+01  1.0988287493841259e+01  9.1484591360806853e+00  1.0564621610663874e+01  9.8667724540172017e+00  9.4068885335321379e+00  9.9288118278708861e+00  1.1103569101128832e+01  1.0090525125109361e+01  8.9730828736378658e+00  8.9842167057342532e+00  9.0159704002743108e+00  8.9971697868252463e+00  9.5934473678405503e+00  9.0350383239017713e+00  9.4807339682734231e+00  9.0267644283698232e+00  9.5919824564464662e+00  8.8502101960402246e+00  9.0762627285300113e+00  9.2857579488303603e+00  9.1116164665528103e+00  9.0630310645704970e+00  9.4890031025499049e+00  9.1672234758776039e+00  1.1008483031811529e+01  1.0836812176771806e+01  1.0953320838033584e+01  1.0542676550384595e+01  1.0902739404180346e+01  1.0941481655399238e+01  1.1226639731306918e+01  1.0878924600552018e+01  9.5124550778081254e+00  9.4244070148027177e+00  9.2774879748563670e+00  9.8024767619676023e+00  9.2039801864654365e+00  9.5348694736238890e+00  1.0032123896826040e+01  9.8596650323539752e+00  1.1129244026283224e+01  1.1374057666623946e+01  1.1289813054502652e+01  1.1113678416989146e+01  1.1239683286597497e+01  1.1005541461408432e+01  1.1308332590951618e+01  1.0869483544044002e+01  1.1547830919036278e+01  1.0776079677339490e+01  1.1604159333678096e+01  1.0444664082981252e+01  1.0310146993341069e+01  1.0799868032838525e+01  1.0001880783415201e+01  9.6193459291280892e+00  9.6527617827492822e+00  1.0115615974064742e+01  1.0105517794083241e+01  9.8347250570337863e+00  9.6493410165134978e+00  1.0532511576058139e+01  1.0113449538178086e+01  1.0472369394230880e+01  1.0390728519655347e+01  1.0180396387987736e+01  1.0164871431363117e+01  1.0420834472127293e+01  9.7398971048685592e+00  9.7541130940842145e+00  9.8637186258692839e+00  9.1640380862109971e+00  8.9841479847407459e+00  9.7505080921480687e+00  1.0179115689675905e+01  8.9506047391751622e+00  9.0037197599875931e+00  9.0604341351617741e+00  9.2740090213147202e+00  9.0688840656479801e+00  9.2006158928802453e+00  9.6148753251313064e+00  9.5078029579134267e+00  8.9326541353101323e+00  8.9878813433104465e+00  9.1756022333874157e+00  9.5083331535637594e+00  9.6549693777092465e+00  9.2010825211629630e+00  1.1244874726464056e+01  1.1008090564768899e+01  1.0688844592301923e+01  1.1220546189187907e+01  1.1091901110880393e+01  1.0648357477712645e+01  1.1135031032620955e+01  9.9413423506700518e+00  8.9943916490627007e+00  9.1390508380314923e+00  9.5573746506033395e+00  1.0722875222721767e+01  9.8733302436487573e+00  1.0648403952761530e+01  1.0502271698266988e+01  1.1002242984736535e+01  1.0635104041038462e+01  1.1349706530503077e+01  1.0195116931635484e+01  1.0862405835446477e+01  1.0889748639331390e+01  1.0807620103412413e+01  1.0862390357036533e+01  9.7674025895855117e+00  1.0097367779120063e+01  9.9124738611839653e+00  9.8726503984929757e+00  9.1980641641640588e+00  9.5408346236522465e+00  9.6944835782855332e+00  1.0029719459293876e+01  9.1366747968093378e+00  8.9667264984337809e+00  8.9692766479404789e+00  9.3771872526053617e+00  1.0183423145379980e+01  9.9125335464602848e+00  1.0146965321248834e+01  1.0124889121303111e+01  1.0903393818543961e+01  1.1225963708279600e+01  1.1012810464584536e+01  1.1339840144073548e+01  1.0915143696288844e+01  1.0998225726901742e+01  1.0941901267247763e+01  1.0580157276341453e+01  9.7517397756023332e+00  9.3026391451848376e+00  1.0518349705610881e+01  1.0120979804110105e+01  1.0699709147860924e+01  9.8079992366734210e+00  1.0030466100421316e+01  9.1900668218640309e+00  9.6962067468510327e+00  9.7007675103944155e+00  1.0129598589111165e+01  9.7929256287363593e+00  9.8224090527980632e+00  1.1297626981861816e+01  1.1307454933447289e+01  1.1481060490245477e+01  1.1099203374243009e+01  1.0550863116935767e+01  1.1217762988745328e+01  1.1418417739040624e+01  1.0235701108199551e+01  1.0559362840598938e+01  1.0352065058653315e+01  1.0658668482822874e+01  1.0505243955674892e+01  9.7689229971618499e+00  1.0087922932347743e+01  9.0952168056988594e+00  1.0859659512290618e+01  1.0975191956304350e+01  1.0931849106515619e+01  1.0941911575751453e+01  1.0303908065298131e+01  1.1060119998127581e+01  1.0826210647887617e+01  1.1065939830969160e+01  9.3386174820073187e+00  1.0156860859237419e+01  1.0278792070898358e+01  9.0823730943148320e+00  1.0151672864809330e+01  1.0291795110457739e+01  1.0156454133786388e+01  9.1146500377836794e+00  8.9818928996622809e+00  9.5570320850935779e+00  8.9855211512681752e+00  9.0481520610455419e+00  9.1387085804489168e+00  9.4602761413905352e+00  8.9513596406778326e+00  9.0576368500605060e+00  9.0479898406561965e+00  9.1512457300597312e+00  9.0618497805511797e+00  8.9632584431875983e+00  9.2672381403246238e+00  8.9743250565765429e+00  1.0488499279350430e+01  1.0043189216705452e+01  1.0300736132442889e+01  1.0042065451663317e+01  1.0096677032342621e+01  1.0024152399557726e+01  9.2020487287956438e+00  1.0481252875249412e+01  9.9857843656324583e+00  8.9872861412480418e+00  9.3609877466687621e+00  1.0572568317857387e+01  9.1710749052176848e+00  9.4943556383963781e+00  9.2053426383911692e+00  9.5530371179515008e+00  9.3047503319317180e+00  9.6810973467644494e+00  1.0095705749489339e+01  1.0228433306421742e+01  9.4034988173869376e+00  1.0604588116704713e+01  9.7013028539279329e+00  1.0128112631230437e+01  1.0208228583086989e+01  9.0814712328108289e+00  9.0087885518324455e+00  8.9002142826125503e+00  9.0445506788579060e+00  9.7033227898980403e+00  9.1397663104914155e+00  9.5214807045932943e+00  1.1348629263383639e+01  1.1142832704049397e+01  1.0593924746434240e+01  1.0850931368557616e+01  1.0856303891914024e+01  1.0769277916576838e+01  1.1029848539786331e+01  9.7968653068953024e+00  1.0316345770818124e+01  9.6031983039762565e+00  1.0308248570438643e+01  1.0640862852922606e+01  1.0193989207066149e+01  1.0587389643356310e+01  1.0696401517672683e+01  1.1546395848801634e+01  1.1364062436361889e+01  1.1047143641215220e+01  1.0684276684256893e+01  1.0231566558915686e+01  1.0383849249882665e+01  9.8203299625561069e+00  9.1574092268317973e+00  1.0189209422339532e+01  9.1379554749474181e+00  1.0060680230517896e+01  9.9815761405542336e+00  9.7572868991269015e+00  1.1390825974366063e+01  1.1430564772166576e+01  1.1237655496691774e+01  1.1090573814317890e+01  1.1156610782873290e+01  1.1025032103226160e+01  1.1138020667439935e+01  9.1025706058192615e+00  1.0300398208726330e+01  9.8019837609495735e+00  9.6130684240779463e+00  9.0021783090271992e+00  8.9502627505163943e+00  8.9788901506990388e+00  1.1396330354928304e+01  1.1144463328965886e+01  1.1072388170765240e+01  1.0839287577632422e+01  1.1205861213210405e+01  1.1187660495877779e+01  9.0928093176966946e+00  9.7288231685405560e+00  9.940245377