<?xml version="1.0"?>
<VTKFile type="UnstructuredGrid"  version="0.1"  >
<UnstructuredGrid>
<Piece  NumberOfPoints="1416" NumberOfCells="2750">
<Points>
<DataArray  type="Float64"  NumberOfComponents="3"  format="ascii">10000 0 0  9969.173337331546 784.5909572750695 0  9440.811062854247 337.8086441165926 0  9969.173337331289 -784.5909572783328 0  9119.461671696214 -436.047325602827 0  0 10000 0  784.5909572783328 9969.173337331289 0  436.0473256028242 9119.461671696214 0  -784.5909572750695 9969.173337331546 0  -337.8086441165958 9440.811062854247 0  -10000 0 0  -9969.173337331289 784.5909572783328 0  -9119.461671696214 436.0473256028198 0  -9969.173337331546 -784.5909572750695 0  -9440.811062854247 -337.8086441165943 0  0 -10000 0  -784.5909572783328 -9969.173337331289 0  -436.0473256028237 -9119.461671696215 0  784.5909572750695 -9969.173337331546 0  337.8086441165926 -9440.811062854247 0  1000 0 0  825.5112685286344 233.2965221726817 0  1210.652051555102 178.7580587220347 0  758.3105164940762 -28.48526495347746 0  1257.782871779572 -45.21674913664203 0  853.1788281180126 -255.1195435303564 0  1122.147561214101 -201.3091483794531 0  0 1000 0  -224.5942532759738 814.142362917265 0  28.69055186178868 757.9412270694447 0  -193.2123325114539 1112.182883894174 0  179.7197598806582 1215.220055532552 0  249.331013302979 860.3118401498294 0  -37.93559097040777 1253.495422595633 0  -1000 0 0  -824.851195817888 -232.1783906338463 0  -1210.595922923236 -178.6629795095487 0  -757.4575350892064 29.53393923004192 0  -1257.504710586107 45.16695969320045 0  -851.7633041405784 248.1772228548502 0  -1120.885945661195 200.0563625481669 0  0 -1000 0  249.0340813110638 -842.6509245101993 0  180.0207135594895 -1211.849580489497 0  18.33127838206231 -719.7561862243336 0  -45.09404287730242 -1257.692498219919 0  -252.413804548122 -852.0675834927048 0  -200.9036788868213 -1120.94680153162 0  2000 0 0  1712.325186787277 -225.5688316983879 0  1949.292517575665 -404.0263120746235 0  1758.092477153796 22.27922893435602 0  2220.4090632581 -278.1657736385001 0  2264.940937824128 12.17221832991 0  2022.901005636987 245.209440425862 0  0 2000 0  301.9748726397239 1740.654411212139 0  1.120723757020302e-12 1745.628282521672 0  388.8436927040806 1995.749174184361 0  -265.4266168243358 2269.848489623402 0  -269.5511398733495 1970.956450977053 0  14.70097338908518 2279.104059422062 0  278.8454224092475 2226.372287316351 0  -2000 0 0  -1712.325186787277 225.5688316983877 0  -1949.292517575666 404.026312074623 0  -1758.092477153796 -22.27922893435661 0  -2220.4090632581 278.1657736385 0  -2264.940937824128 -12.1722183299102 0  -2022.901005636987 -245.2094404258624 0  0 -2000 0  -225.5688316983879 -1712.325186787277 0  -404.0263120746235 -1949.292517575665 0  22.17353424893216 -1758.317218185472 0  -278.1657736385001 -2220.4090632581 0  12.17221832991003 -2264.940937824128 0  245.209440425862 -2022.901005636987 0  9876.883405952116 1564.344650397643 0  9413.741379249825 893.2779112941004 0  9723.699203978225 2334.453638552975 0  9281.686298197614 1862.981019420672 0  8978.354407498971 1302.212327038938 0  9510.565162954143 3090.169943741452 0  9171.616356661538 2425.460729511194 0  9238.7953251169 3826.834323641162 0  8786.327444180986 2855.609134985008 0  8910.065241889364 4539.904997384312 0  8576.420325493971 4088.764306853787 0  8462.074319507847 3512.480585282223 0  8526.40164354859 5224.985647146975 0  8380.046298293893 4548.240288757754 0  8090.169943758854 5877.852522911823 0  7683.770966481169 5298.80797610165 0  7874.660194180307 4750.86281684807 0  7604.059656011831 6494.480483288346 0  7228.811045347766 5749.151035153302 0  7071.067811878895 7071.067811852055 0  6882.490700411468 6265.549259424126 0  6494.480483314509 7604.059655989487 0  6558.565613988438 6766.215058556128 0  5877.852522936711 8090.169943740771 0  5735.388635244923 7423.195460774175 0  5981.697728245949 6848.506665974658 0  5224.985647170473 8526.401643534191 0  5307.257413765717 7837.676472666109 0  4539.904997404682 8910.065241878983 0  4613.173854048643 7930.353439924153 0  3826.834323658716 9238.79532510963 0  3877.010908226574 8367.304709936669 0  3090.169943755497 9510.565162949579 0  3395.404259564986 8853.279745804064 0  2334.4536385629 9723.699203975842 0  2848.849836324876 8831.763646725167 0  1564.34465040468 9876.883405951001 0  1666.047411844783 9306.350461236803 0  2135.463838140692 8932.199249345211 0  1138.519892287582 9404.047671358992 0  -1564.344650397643 9876.883405952116 0  -893.2779112941062 9413.741379249825 0  -2334.453638552975 9723.699203978225 0  -1862.981019420678 9281.686298197616 0  -1302.212327038943 8978.354407498971 0  -3090.169943741452 9510.565162954143 0  -2425.460729511197 9171.61635666154 0  -3826.834323641162 9238.7953251169 0  -2855.609134985011 8786.32744418099 0  -4539.904997384312 8910.065241889364 0  -4088.764306853793 8576.420325493971 0  -3512.480585282231 8462.074319507852 0  -5224.985647146975 8526.40164354859 0  -4548.240288757759 8380.046298293893 0  -5877.852522911823 8090.169943758854 0  -5298.807976101652 7683.770966481165 0  -4750.862816848074 7874.660194180306 0  -6494.480483288346 7604.059656011831 0  -5749.151035153306 7228.811045347762 0  -7071.067811852055 7071.067811878895 0  -6265.549259424123 6882.490700411468 0  -7604.059655989487 6494.480483314509 0  -6766.215058556127 6558.565613988435 0  -8090.169943740771 5877.852522936711 0  -7423.195460774181 5735.388635244917 0  -6848.506665974661 5981.697728245946 0  -8526.401643534191 5224.985647170473 0  -7837.676472666112 5307.257413765715 0  -8910.065241878983 4539.904997404682 0  -7930.353439924156 4613.173854048636 0  -9238.79532510963 3826.834323658716 0  -8367.304709936674 3877.010908226573 0  -9510.565162949579 3090.169943755497 0  -8853.279745804064 3395.404259564985 0  -9723.699203975842 2334.4536385629 0  -8831.763646725163 2848.849836324873 0  -9876.883405951001 1564.34465040468 0  -9306.350461236801 1666.047411844779 0  -8932.199249345213 2135.463838140684 0  -9404.047671358992 1138.519892287579 0  -9876.883405952116 -1564.344650397643 0  -9413.741379249826 -893.2779112941001 0  -9723.699203978225 -2334.453638552975 0  -9281.686298197616 -1862.981019420666 0  -8978.354407498975 -1302.212327038933 0  -9510.565162954143 -3090.169943741452 0  -9171.61635666154 -2425.460729511192 0  -9238.7953251169 -3826.834323641162 0  -8786.32744418099 -2855.609134985002 0  -8910.065241889364 -4539.904997384312 0  -8576.420325493969 -4088.764306853795 0  -8462.074319507856 -3512.480585282229 0  -8526.40164354859 -5224.985647146975 0  -8380.046298293893 -4548.240288757762 0  -8090.169943758854 -5877.852522911823 0  -7683.770966481169 -5298.807976101652 0  -7874.660194180307 -4750.862816848075 0  -7604.059656011831 -6494.480483288346 0  -7228.811045347765 -5749.151035153303 0  -7071.067811878895 -7071.067811852055 0  -6882.490700411463 -6265.549259424131 0  -6494.480483314509 -7604.059655989487 0  -6558.565613988436 -6766.215058556136 0  -5877.852522936711 -8090.169943740771 0  -5735.388635244922 -7423.195460774175 0  -5981.697728245952 -6848.506665974656 0  -5224.985647170473 -8526.401643534191 0  -5307.257413765717 -7837.676472666109 0  -4539.904997404682 -8910.065241878983 0  -4613.173854048643 -7930.353439924151 0  -3826.834323658716 -9238.79532510963 0  -3877.010908226574 -8367.304709936669 0  -3090.169943755497 -9510.565162949579 0  -3395.404259564985 -8853.279745804059 0  -2334.4536385629 -9723.699203975842 0  -2848.849836324873 -8831.763646725161 0  -1564.34465040468 -9876.883405951001 0  -1666.047411844782 -9306.350461236796 0  -2135.463838140686 -8932.199249345209 0  -1138.519892287581 -9404.047671358991 0  1564.344650397643 -9876.883405952116 0  893.2779112940983 -9413.741379249826 0  2334.453638552975 -9723.699203978225 0  1862.981019420666 -9281.686298197616 0  1302.212327038932 -8978.354407498975 0  3090.169943741452 -9510.565162954143 0  2425.460729511192 -9171.61635666154 0  3826.834323641162 -9238.7953251169 0  2855.609134985002 -8786.32744418099 0  4539.904997384312 -8910.065241889364 0  4088.764306853795 -8576.420325493969 0  3512.480585282229 -8462.074319507856 0  5224.985647146975 -8526.40164354859 0  4548.240288757762 -8380.046298293893 0  5877.852522911823 -8090.169943758854 0  5298.807976101651 -7683.770966481169 0  4750.862816848074 -7874.660194180306 0  6494.480483288346 -7604.059656011831 0  5749.151035153302 -7228.811045347768 0  7071.067811852055 -7071.067811878895 0  6265.54925942412 -6882.490700411468 0  7604.059655989487 -6494.480483314509 0  6766.215058556126 -6558.56561398844 0  8090.169943740771 -5877.852522936711 0  7423.195460774175 -5735.388635244922 0  6848.506665974652 -5981.697728245953 0  8526.401643534191 -5224.985647170473 0  7837.676472666108 -5307.257413765719 0  8910.065241878983 -4539.904997404682 0  7930.353439924147 -4613.173854048646 0  9238.79532510963 -3826.834323658716 0  8367.304709936667 -3877.010908226576 0  9510.565162949579 -3090.169943755497 0  8853.279745804059 -3395.404259564986 0  9723.699203975842 -2334.4536385629 0  8831.76364672516 -2848.849836324872 0  9876.883405951001 -1564.34465040468 0  9306.350461236796 -1666.047411844782 0  8932.199249345209 -2135.463838140685 0  9404.047671358989 -1138.519892287582 0  3890.561977844704 -3980.209838863507 0  3378.112472111499 -3620.467011831335 0  3865.652261003032 -3450.186185358944 0  3413.999318598406 -4024.335624504108 0  4503.212714161729 -3720.115308817993 0  4398.512117453444 -4241.925396324142 0  3572.533128876644 -4426.573998554646 0  3995.622341410154 -4399.580205031658 0  -3980.209838863506 -3890.561977844704 0  -3620.467011831334 -3378.112472111499 0  -3450.186185358944 -3865.652261003033 0  -4024.335624504107 -3413.999318598408 0  -3720.115308817994 -4503.21271416173 0  -4241.925396324144 -4398.512117453445 0  -4426.573998554645 -3572.533128876645 0  -4399.580205031658 -3995.622341410156 0  3980.209838863507 3890.561977844706 0  3620.467011831334 3378.
[...]
<PointData  Scalars="f_29993"> 
<DataArray  type="Float64"  Name="f_29993"  format="ascii">9.8365784644383041e+00  9.4381017663114282e+00  9.1811411950781210e+00  9.7265230353828951e+00  1.0054859259506564e+01  1.0400756566373531e+01  1.0493837680128390e+01  1.0245122471908042e+01  1.0394925276258217e+01  1.0420971688276209e+01  1.0849553150487816e+01  1.0346119516329642e+01  1.1097463539867920e+01  1.0781327733195115e+01  1.1076458906257674e+01  1.0030284682980607e+01  1.0146828245540688e+01  9.7825123467792352e+00  9.7877948820311556e+00  9.5882791794804803e+00  8.9697206104034670e+00  9.1795660999393558e+00  8.9240762695425566e+00  9.0892958011599010e+00  8.9400135466779176e+00  8.9985900066693194e+00  8.9563662310074612e+00  1.0803770067394078e+01  1.0837191302635048e+01  1.0540913338306307e+01  1.1135547111957731e+01  1.0945394154883655e+01  1.0485296364985235e+01  1.1175985804419918e+01  1.0099020300095914e+01  9.4719423347728835e+00  1.0085560518579811e+01  9.9027416105903470e+00  1.0431735139874213e+01  1.0494002589035835e+01  1.0632694580932990e+01  9.7320222873143631e+00  9.5374058836333315e+00  9.9889205274386601e+00  9.4589283427900241e+00  9.9173068502197861e+00  9.5515619081608225e+00  9.7463787561386361e+00  8.8970133210589140e+00  8.9021471824519995e+00  9.1945264854385496e+00  8.9546364832668459e+00  9.4590146553771959e+00  9.1068108188305441e+00  8.9978772002064087e+00  1.1048481724548225e+01  1.1176106794786229e+01  1.1384357997545479e+01  1.0209890265858421e+01  1.0956820544968007e+01  1.1074929411321660e+01  1.0831201908510870e+01  1.0266450919232197e+01  1.0818503228799324e+01  1.1026942621180261e+01  1.1198238255144807e+01  1.0579033449632798e+01  1.1165557342849365e+01  1.1103039668714791e+01  1.0154603161134345e+01  1.0006344589597692e+01  9.9855258577270227e+00  9.9218652407540819e+00  1.0096348719302902e+01  9.9410157677949673e+00  9.8223661710768475e+00  9.8854969642385164e+00  9.4547375040938935e+00  8.9157654247698481e+00  1.0361968894908820e+01  9.7494003748340017e+00  9.0995702220782846e+00  1.0643060212892685e+01  1.0458911904889023e+01  1.0491357629943963e+01  1.0714650020146637e+01  1.0551174448242236e+01  1.0562898970018225e+01  1.0544017544057400e+01  1.0093986746217892e+01  1.0437460600514536e+01  9.8572134499363244e+00  9.4562328520030832e+00  1.0058140016349560e+01  1.0495195269374811e+01  9.9336803811731702e+00  1.0804313209917282e+01  1.0742750442592703e+01  1.0776878505358594e+01  1.1017204417867120e+01  1.0423609258895063e+01  1.0704262731833790e+01  1.1100666163688757e+01  9.9934250652108272e+00  1.0148179552012591e+01  1.0181667465163496e+01  9.6085273260700390e+00  1.0480648210312362e+01  1.0085850208742308e+01  1.0412059158015810e+01  1.0390997098630113e+01  1.0411004695459127e+01  1.0156016143563223e+01  1.0449100076113861e+01  1.0193160610061314e+01  9.8436927066383717e+00  1.0318177820492332e+01  1.0369439560233825e+01  1.0414979526669262e+01  1.0352701856623462e+01  1.0377370569832021e+01  1.0285350944734830e+01  1.0347090293534812e+01  1.0376403295763327e+01  1.0356280854308434e+01  1.0383280903037244e+01  1.0396073849587282e+01  1.0345213166684241e+01  1.0350238497014578e+01  1.0382058337677735e+01  1.0343682436935653e+01  1.0184625785458643e+01  1.0086995225450771e+01  1.0261138262658752e+01  1.0009531270490211e+01  9.8602230084124507e+00  1.0058244748838186e+01  9.8501103110812096e+00  1.0345307864038068e+01  9.9748382485550664e+00  1.0305134125616144e+01  1.0213006220606099e+01  1.0077187130333806e+01  9.8948718647327407e+00  9.9044299724500338e+00  9.9566234336304582e+00  9.5378423015321676e+00  1.0273500643720364e+01  9.9485657067625919e+00  9.7469685333129377e+00  9.7372967298124458e+00  9.7430654847545917e+00  9.2900791179590083e+00  9.7629185916162626e+00  9.5188835849808076e+00  9.6558603889545420e+00  9.9285430308908715e+00  1.0613370510951500e+01  1.0774017592731710e+01  1.0691459609649204e+01  1.0708690951604318e+01  1.0434767262212524e+01  1.0728047947979993e+01  1.0839807370941898e+01  1.0820135842800639e+01  1.0877623777632675e+01  1.0882999163924572e+01  1.1075927177008682e+01  1.1053564987279804e+01  1.0527385280815691e+01  1.0984997040424238e+01  9.7399379729207336e+00  9.6004851548958925e+00  1.0652154505369117e+01  9.6286545208952692e+00  9.0937715486438346e+00  9.5890950873713408e+00  9.1125230583332471e+00  9.6724259445617271e+00  9.1076855511648063e+00  1.0050150406593843e+01  9.6259847091218251e+00  9.1342793065548751e+00  9.6732752170723248e+00  9.6898062794016919e+00  9.4628215033395122e+00  9.0944197614379902e+00  9.5706853653569937e+00  9.1648744865692269e+00  9.5321230038129379e+00  9.1687170198738617e+00  9.4117709192216008e+00  8.9505674946020157e+00  9.6713717286451040e+00  9.1139952304839511e+00  8.9747042959995724e+00  9.4944750901736263e+00  9.5262790881244808e+00  9.3987696330272570e+00  9.6005447272292450e+00  9.1530721113112019e+00  9.3174739184560487e+00  9.5682612299584129e+00  9.1343397687799381e+00  9.7468565618129261e+00  9.0008096252318097e+00  9.9910784531869208e+00  9.6284050777962324e+00  9.2991299806671339e+00  9.9018594151084560e+00  9.7145505628053961e+00  9.8975305966254705e+00  9.6508288964683793e+00  9.6608210001529162e+00  9.7912983419618129e+00  9.4586807296989512e+00  9.6529244337860529e+00  9.2786879827382105e+00  9.5457240323831520e+00  9.2160072511664257e+00  9.6442338841549855e+00  9.1532844504257280e+00  9.2240814743034854e+00  9.5243892913798813e+00  9.1651425331338938e+00  9.5886620591798852e+00  9.0921754791115514e+00  9.9381991680718329e+00  9.5759050593549571e+00  1.0079797500753092e+01  9.8401493249663243e+00  9.8635426460554516e+00  9.7037380814428236e+00  9.6463060935911678e+00  9.1722497456923850e+00  9.0993139529314711e+00  9.2504331243556042e+00  9.0059228677292538e+00  9.3703400956509313e+00  8.9837461445057230e+00  9.3202849008516999e+00  9.0810957975167526e+00  9.6863230562312079e+00  9.1128425041757577e+00  9.3452917090748748e+00  9.3496205900066851e+00  9.1338372483658183e+00  9.7400713638119587e+00  9.0197972948923244e+00  9.9861702310804947e+00  9.3169421905338972e+00  9.0546617478660050e+00  9.0949229695184961e+00  1.1615003118859843e+01  1.1256659386530476e+01  1.1496029431988962e+01  1.0781014405137624e+01  1.1134732264273049e+01  1.1193714951806353e+01  1.1394657828627993e+01  1.1604777981017703e+01  1.0211051286192433e+01  1.1202359865688502e+01  1.1018293227021230e+01  1.0136974687743738e+01  9.9979277099347534e+00  1.0229771328369406e+01  9.7954079824258748e+00  1.0235412007984799e+01  9.9963599952589792e+00  9.1243454919057410e+00  9.0503764417167663e+00  9.9124958846107631e+00  1.0468315153680924e+01  1.0525056191617702e+01  1.0159170178370653e+01  1.0389100659150634e+01  9.6954400650385502e+00  1.0458275592178044e+01  9.9657669668371760e+00  1.0276284812399320e+01  1.0363174609819966e+01  1.0022738443852804e+01  1.1070757090648243e+01  1.0825784979102696e+01  1.0641888807017143e+01  1.0907126730829109e+01  1.0919000265791256e+01  1.1073141761102899e+01  1.0986152961492110e+01  8.9661002682137845e+00  9.1516201232288257e+00  8.9635712384680222e+00  9.2500407042666861e+00  9.1321325761829932e+00  8.9995751379165405e+00  9.0237172334203155e+00  1.1128087956630605e+01  1.1266280046643194e+01  1.1170304325687646e+01  1.1003557924058319e+01  1.0854682139731477e+01  1.0700771963388913e+01  1.0853204652068593e+01  9.1712749353044192e+00  9.1468735505400538e+00  9.1294996324025544e+00  9.1506297488540920e+00  8.5321930022697412e+00  9.3599898279156371e+00  1.0603943189465394e+01  9.0439621633341467e+00  9.0179857741332601e+00  8.9016001461059613e+00  8.9782672980597145e+00  9.2119606921829558e+00  9.6636028250903330e+00  9.7251828647940108e+00  9.3944936502254368e+00  9.7491086426571769e+00  9.8723447511399414e+00  9.3008811591403386e+00  9.7573155378285605e+00  9.4399758915952603e+00  9.0212100168683040e+00  1.1293146952041985e+01  1.1266415644516236e+01  1.1119664163851144e+01  1.1204387720266805e+01  1.1230444659665208e+01  1.1242971386037052e+01  1.1336017059843087e+01  1.0843102763732025e+01  1.1098811570262567e+01  1.1184219923768799e+01  1.1155757664518767e+01  1.1010982251617500e+01  1.0044823382965536e+01  9.7998527909070834e+00  9.8143875094899133e+00  1.0156463283737178e+01  1.0177223545370389e+01  1.0132580533663411e+01  9.0128768053768216e+00  9.2215028904159499e+00  9.4557954792341228e+00  9.1713708063539308e+00  8.9236388354216807e+00  9.1868206490739261e+00  9.0585279091451270e+00  8.9978643280503263e+00  9.3230203570774961e+00  9.0514640448999391e+00  9.0595072740783706e+00  9.4892306203835268e+00  9.4564792209631445e+00  9.3545961211838691e+00  1.0090394661289794e+01  9.9052855695430004e+00  9.5935973757032187e+00  8.8140226956392116e+00  9.0135944685656071e+00  9.9699077142222645e+00  1.0297457746748909e+01  1.0562742415158274e+01  1.1058904547481813e+01  9.7965577142364548e+00  9.2384469058065459e+00  1.0419170652936449e+01  1.1248749117043227e+01  8.8882875500091210e+00  9.1249110209302913e+00  9.5099959853008134e+00  9.0892656031257086e+00  9.3587661543897127e+00  9.0442561332432589e+00  9.4717509346713431e+00  9.7105567311164922e+00  9.9303465013919467e+00  1.0109440756673948e+01  1.0100478161703970e+01  9.6988167494062214e+00  9.0284056039134466e+00  9.1404014587315423e+00  1.0181157460695614e+01  1.0542139388805634e+01  1.0556213899344634e+01  1.0050217951778444e+01  9.8682971852867460e+00  9.6166937096222913e+00  1.0003897564012670e+01  1.1115907993936938e+01  1.1333949647293469e+01  1.0613943735545671e+01  1.1091187182823271e+01  1.0980238368788402e+01  1.1295705282646596e+01  9.7961544834837735e+00  1.0646668986796822e+01  1.0705196179264307e+01  1.0552043402152346e+01  1.1015451911678657e+01  1.1052876190216649e+01  1.1111867845563809e+01  1.0951468254687322e+01  1.1353370317652132e+01  1.1449287489222373e+01  1.1200456192294347e+01  1.1202750906176393e+01  1.1088582495686392e+01  1.1100495444485825e+01  1.1265183167718943e+01  9.1770974241601078e+00  8.9648704231986667e+00  9.0209227146598039e+00  9.1443710046794866e+00  9.7630667931469652e+00  9.6862550231145939e+00  9.7377371831386075e+00  9.2057447185786589e+00  9.9597158195132653e+00  9.3442123766110310e+00  1.0292818315171376e+01  1.0324815048883886e+01  1.0217732066525082e+01  9.2042428960389895e+00  1.0422977049956549e+01  1.0330563724571160e+01  1.0340776275140220e+01  1.0172337187971200e+01  1.0216770033028080e+01  1.0257681951875616e+01  1.0346294187407089e+01  1.0817766642119452e+01  1.0892197906431459e+01  1.0627061427450252e+01  1.0961801368623693e+01  1.1021983470961478e+01  1.1066793897958039e+01  1.0044115098000100e+01  1.0058481570793143e+01  9.9247647787258693e+00  1.0807125742308219e+01  9.8839653374499807e+00  1.0242646914125963e+01  8.9255802324144558e+00  8.9329266150546207e+00  9.0857549475714627e+00  9.1997974327929857e+00  8.9574574165927778e+00  9.0552234972235262e+00  1.0004146046036361e+01  9.2797559200572639e+00  9.4843538135068961e+00  1.0162335847122485e+01  1.0092260505257656e+01  1.0081975070338208e+01  9.6296791169688749e+00  9.1649338310223829e+00  9.0765741999510414e+00  9.6598382676668813e+00  9.8259034715974529e+00  9.7929587965065128e+00  9.8142199453794650e+00  9.2928342478371668e+00  9.8825014993592646e+00  1.1366319686367850e+01  1.0946863878388626e+01  1.1493314755167409e+01  1.0841116988621483e+01  1.0076926329685953e+01  1.0623204759681213e+01  1.0684673742021355e+01  1.1254960840076837e+01  1.0897130243896431e+01  9.4583266381514566e+00  9.0849239727804303e+00  9.6213683619238690e+00  9.3432832880173766e+00  9.6173924814023195e+00  9.6791407117251751e+00  9.3465748394375723e+00  9.3942523403918781e+00  9.4950557189270253e+00  9.7832923487543031e+00  1.0043157412907233e+01  9.5237667542665942e+00  1.0304461676261216e+01  9.7222878177449914e+00  1.0188048883024390e+01  9.5301702729637032e+00  9.6963374654506147e+00  1.0653994144156933e+01  1.0668814405257981e+01  1.0944426621164283e+01  1.1015154932859065e+01  1.0714391163320300e+01  1.0765499673352172e+01  1.0838526546221939e+01  1.0795431490893588e+01  1.0035142348902834e+01  9.1000592478403188e+00  8.9183607866112649e+00  9.1432575230078363e+00  1.0180267169519700e+01  1.1065264623101672e+01  1.0564625353935932e+01  9.9047726574986132e+00  9.9699781226181514e+00  9.8919059756444767e+00  1.0102857500570053e+01  1.0062307477658496e+01  1.0122251615721641e+01  9.4275432915011521e+00  9.9982150660463454e+00  1.0132778318971450e+01  9.6536622209909826e+00  1.0472407389047602e+01  1.0511534403096553e+01  9.5102229043407203e+00  9.3534671443038064e+00  1.0843951602317874e+01  1.0239079321546331e+01  1.0950403958906200e+01  8.9900134726273837e+00  9.0508766878233100e+00  1.0424844347161837e+01  1.1114622215187037e+01  1.1214118249777597e+01  9.9695061072066125e+00  9.3276362099996106e+00  9.0287641917535169e+00  9.6321511026238298e+00  9.5679613837581385e+00  1.0149005496215290e+01  9.6358571887926150e+00  9.8403910634163552e+00  9.4864397394503186e+00  9.1083982089224200e+00  9.0028909263934871e+00  9.2662623607279748e+00  9.3657496808654503e+00  9.2615337203126202e+00  9.3777026470581895e+00  9.5420419202786206e+00  1.0619223457030918e+01  1.0640265237703682e+01  1.0748941940939639e+01  1.0099902838426011e+01  9.9304303686559194e+00  9.1486021724851447e+00  1.0672231893643376e+01  1.0548787274927383e+01  1.1035339986958787e+01  9.1674981515985703e+00  1.0647669795446024e+01  9.8673839895816311e+00  9.4224145940660922e+00  9.8463303390345480e+00  1.1133858010615688e+01  1.0029316337527856e+01  8.9852010838514769e+00  8.9863551207721493e+00  8.9485635102871495e+00  9.0052530339657846e+00  9.5543231566652658e+00  8.9856664932933619e+00  9.4704647358476528e+00  9.0104130581925936e+00  9.6474640024964042e+00  8.8693949892598649e+00  9.1396506308474539e+00  9.2476042806992567e+00  9.1166952115212911e+00  8.9549383738041133e+00  9.5031829586934755e+00  9.1398529827895203e+00  1.0986364481797638e+01  1.0813363196663703e+01  1.0981453945511962e+01  1.0531349386919505e+01  1.0913411156583749e+01  1.0936540418857172e+01  1.1242828190223049e+01  1.0922804778324821e+01  9.5075582066451663e+00  9.4184614094094581e+00  9.2493518425456127e+00  9.8110035145061421e+00  9.2292982395272016e+00  9.5751654132846475e+00  1.0043378690614965e+01  9.8851602516997978e+00  1.1033721578117504e+01  1.1397570219785090e+01  1.1320682962214192e+01  1.1215860586938240e+01  1.1265492952121553e+01  1.0983743237003315e+01  1.1325648824457877e+01  1.0925719064733359e+01  1.1531553654204222e+01  1.0810692673299878e+01  1.1536697100338070e+01  1.0455182281719782e+01  1.0345928839864401e+01  1.0805147237629395e+01  9.9773570024486737e+00  9.6797582796067552e+00  9.5888833651763612e+00  1.0119423851920521e+01  1.0096628519274233e+01  9.8056183506153829e+00  9.7369326609816351e+00  1.0573939318631778e+01  1.0095362121547465e+01  1.0464360803382073e+01  1.0488888798585677e+01  1.0251744544935518e+01  1.0026430300578836e+01  1.0379661052885798e+01  9.6728760412511665e+00  9.8066015945766303e+00  9.9197032927175801e+00  9.1138064833778181e+00  9.0599918816772487e+00  9.7163985030132061e+00  1.0118542477719632e+01  9.0052865013532699e+00  9.0046730876668111e+00  9.0909790404058910e+00  9.2701789511222401e+00  9.0656466085740899e+00  9.1608708869613427e+00  9.6771024177146554e+00  9.4162511151947790e+00  8.9054706243126969e+00  8.9892471426535057e+00  9.1443274017999983e+00  9.5107642604419205e+00  9.5665638514164772e+00  9.3235672632317481e+00  1.1202709248046501e+01  1.1062529645110345e+01  1.0748593670316284e+01  1.1210752513226158e+01  1.1071167950521218e+01  1.0685788666971657e+01  1.1035711067090386e+01  9.9120421851606775e+00  9.0144228462829794e+00  9.1650770172523757e+00  9.4980638166207640e+00  1.0733947611459740e+01  9.8066477496508568e+00  1.0675874447728248e+01  1.0505710554230708e+01  1.0972575814333419e+01  1.0654518123104975e+01  1.1335550277889256e+01  1.0157237587392867e+01  1.0898655826959516e+01  1.0889451540808333e+01  1.0827384442866505e+01  1.0853359344969682e+01  9.7914096290233594e+00  1.0088545126389461e+01  9.8732264680350106e+00  9.8766542453912969e+00  9.1749521353841672e+00  9.5419320292446042e+00  9.6710891415830460e+00  9.9781049375360205e+00  9.1041994748611987e+00  8.9489568676284730e+00  8.9849399917540715e+00  9.3618089233160511e+00  1.0203805936339812e+01  9.9729113700548950e+00  1.0144303509061469e+01  1.0140882590026106e+01  1.0896399056445295e+01  1.1261028869201656e+01  1.0992141599383373e+01  1.1330373855653727e+01  1.0911800868791607e+01  1.0989848762482390e+01  1.0937493096224760e+01  1.0590160914471905e+01  9.7692440538590475e+00  9.2528160988003219e+00  1.0481546414803006e+01  1.0109346431214204e+01  1.0654493335245247e+01  9.7831855890207038e+00  1.0064628582243305e+01  9.1898394552889116e+00  9.6639530080647713e+00  9.6803018442625159e+00  1.0103313655161440e+01  9.8220149445806459e+00  9.7898891294830399e+00  1.1296218534298083e+01  1.1323675783806353e+01  1.1427377264968436e+01  1.1115814482239129e+01  1.0518534794054082e+01  1.1219560256647700e+01  1.1374611239280563e+01  1.0216035069954307e+01  1.0623006066002851e+01  1.0355875116135691e+01  1.0649660268314696e+01  1.0487338458172241e+01  9.8415025203224058e+00  1.0077129080779201e+01  9.0487663929253888e+00  1.0836902306530479e+01  1.0934824901524154e+01  1.0896661512850331e+01  1.0942526457302895e+01  1.0275789660422147e+01  1.1085003545494375e+01  1.0787588147866114e+01  1.1085474496754122e+01  9.2981421312271966e+00  1.0105331068473287e+01  1.0283610958304598e+01  9.0830276796509590e+00  1.0127367244721507e+01  1.0312350883945232e+01  1.0205147716289817e+01  9.1295107108673719e+00  9.0154524282977047e+00  9.5114092218360806e+00  9.0789881902571477e+00  9.0267928873761036e+00  9.1043153320490582e+00  9.3911753735085899e+00  8.9562352725292467e+00  9.0624448760025587e+00  9.0699180070432330e+00  9.1895636278117596e+00  9.1101980834055372e+00  8.9276715492849359e+00  9.2357870272760216e+00  8.9040680340457143e+00  1.0516642506100595e+01  1.0022916448638290e+01  1.0310228748196472e+01  1.0043665006683801e+01  1.0106223737809655e+01  1.0032257715195549e+01  9.2577422952811865e+00  1.0536880672242663e+01  9.9899199074808784e+00  8.9863096120539527e+00  9.3309604630173286e+00  1.0663289185283439e+01  9.1663196136246334e+00  9.5103074745148213e+00  9.1889147906186057e+00  9.5374885133559104e+00  9.3154546422637008e+00  9.6593952222635480e+00  1.0120515110996580e+01  1.0109870462171498e+01  9.3623230843006127e+00  1.0615056010440712e+01  9.5913630880494569e+00  1.0169266202390288e+01  1.0277774782509344e+01  9.0538396456132446e+00  9.0301852604982518e+00  8.9845723444834285e+00  8.9050673613569362e+00  9.7882128714089465e+00  8.9349156433578418e+00  9.4013021386348079e+00  1.1340968141140046e+01  1.1147890659462272e+01  1.0554505019068950e+01  1.0971373023574058e+01  1.0935915962322600e+01  1.0811760801743105e+01  1.1038571357258521e+01  9.8321553998385003e+00  1.0231196009948684e+01  9.6262009393840291e+00  1.0430294463078342e+01  1.0731572949162107e+01  1.0246717360636568e+01  1.0533324256177075e+01  1.0733817674496876e+01  1.1479489984049632e+01  1.1376151777246447e+01  1.1080524622926337e+01  1.0706800112000472e+01  1.0195983383342329e+01  1.0421527736016508e+01  9.8164494870901695e+00  9.1874767952973357e+00  1.0211232043948964e+01  9.1377123087733327e+00  1.0101608291381547e+01  9.9915476164733033e+00  9.7881550955125096e+00  1.1363390177423737e+01  1.1547913678918917e+01  1.1255769064934833e+01  1.1123232241153891e+01  1.1098079506392185e+01  1.1045502824285263e+01  1.1101397488504293e+01  9.1216191606617301e+00  1.0331240930776740e+01  9.6805604550069226e+00  9.6043393559074115e+00  9.0236658064483226e+00  9.1060179975493565e+00  9.0197245035482787e+00  1.1407867980366110e+01  1.1156841295163796e+01  1.1012149552401052e+01  1.0890859677299305e+01  1.1236182793708240e+01  1.1154518789832258e+01  9.1096202752885258e+00  9.7338711677594265e+00  9.96618687345