<?xml version="1.0"?>
<VTKFile type="UnstructuredGrid"  version="0.1"  >
<UnstructuredGrid>
<Piece  NumberOfPoints="7080" NumberOfCells="33000">
<Points>
<DataArray  type="Float64"  NumberOfComponents="3"  format="ascii">10000 0 7.070288273933985  0 10000 7.070288273933985  -10000 0 7.070288273933985  0 -10000 7.070288273933985  1000 0 1961.024768623131  0 1000 1961.024768623131  -1000 0 1961.024768623131  0 -1000 1961.024768623131  2000 0 1762.036771699054  0 2000 1762.036771699054  -2000 0 1762.036771699054  0 -2000 1762.036771699054  10000 0 106.3825639879029  0 10000 106.3825639879029  -10000 0 106.3825639879029  0 -10000 106.3825639879029  9969.173337331546 784.5909572750695 6.913210036130304  9876.883405952116 1564.344650397643 6.457351235062249  9723.699203978225 2334.453638552975 5.747334506333408  9510.565162954143 3090.169943741452 4.852661234329698  9238.7953251169 3826.834323641162 3.860908272468953  8910.065241889364 4539.904997384312 2.869155310606736  8526.40164354859 5224.985647146975 1.974482038599168  8090.169943758854 5877.852522911823 1.264465309864206  7604.059656011831 6494.480483288346 0.808606508788917  7071.067811878895 7071.067811852055 0.6515282709768526  6494.480483314509 7604.059655989487 0.808606508775268  5877.852522936711 8090.169943740771 1.264465309840991  5224.985647170473 8526.401643534191 1.974482038570541  4539.904997404682 8910.065241878983 2.869155310578822  3826.834323658716 9238.79532510963 3.860908272444555  3090.169943755497 9510.565162949579 4.852661234311658  2334.4536385629 9723.699203975842 5.747334506322807  1564.34465040468 9876.883405951001 6.457351235056861  784.5909572783328 9969.173337331289 6.913210036129005  -784.5909572750695 9969.173337331546 6.913210036130305  -1564.344650397643 9876.883405952116 6.457351235062248  -2334.453638552975 9723.699203978225 5.747334506333411  -3090.169943741452 9510.565162954143 4.852661234329696  -3826.834323641162 9238.7953251169 3.86090827246895  -4539.904997384312 8910.065241889364 2.869155310606734  -5224.985647146975 8526.40164354859 1.97448203859917  -5877.852522911823 8090.169943758854 1.264465309864206  -6494.480483288346 7604.059656011831 0.8086065087889174  -7071.067811852055 7071.067811878895 0.6515282709768526  -7604.059655989487 6494.480483314509 0.8086065087752685  -8090.169943740771 5877.852522936711 1.264465309840992  -8526.401643534191 5224.985647170473 1.97448203857054  -8910.065241878983 4539.904997404682 2.869155310578824  -9238.79532510963 3826.834323658716 3.860908272444557  -9510.565162949579 3090.169943755497 4.852661234311657  -9723.699203975842 2334.4536385629 5.74733450632281  -9876.883405951001 1564.34465040468 6.457351235056863  -9969.173337331289 784.5909572783328 6.913210036129005  -9969.173337331546 -784.5909572750695 6.913210036130304  -9876.883405952116 -1564.344650397643 6.457351235062249  -9723.699203978225 -2334.453638552975 5.747334506333408  -9510.565162954143 -3090.169943741452 4.852661234329699  -9238.7953251169 -3826.834323641162 3.860908272468953  -8910.065241889364 -4539.904997384312 2.869155310606737  -8526.40164354859 -5224.985647146975 1.974482038599168  -8090.169943758854 -5877.852522911823 1.264465309864204  -7604.059656011831 -6494.480483288346 0.8086065087889166  -7071.067811878895 -7071.067811852055 0.6515282709768526  -6494.480483314509 -7604.059655989487 0.8086065087752675  -5877.852522936711 -8090.169943740771 1.26446530984099  -5224.985647170473 -8526.401643534191 1.974482038570543  -4539.904997404682 -8910.065241878983 2.869155310578821  -3826.834323658716 -9238.79532510963 3.860908272444553  -3090.169943755497 -9510.565162949579 4.852661234311658  -2334.4536385629 -9723.699203975842 5.747334506322806  -1564.34465040468 -9876.883405951001 6.457351235056861  -784.5909572783328 -9969.173337331289 6.913210036129005  784.5909572750695 -9969.173337331546 6.913210036130303  1564.344650397643 -9876.883405952116 6.457351235062249  2334.453638552975 -9723.699203978225 5.747334506333408  3090.169943741452 -9510.565162954143 4.852661234329696  3826.834323641162 -9238.7953251169 3.860908272468954  4539.904997384312 -8910.065241889364 2.869155310606735  5224.985647146975 -8526.40164354859 1.974482038599169  5877.852522911823 -8090.169943758854 1.264465309864205  6494.480483288346 -7604.059656011831 0.808606508788917  7071.067811852055 -7071.067811878895 0.6515282709768526  7604.059655989487 -6494.480483314509 0.808606508775268  8090.169943740771 -5877.852522936711 1.264465309840991  8526.401643534191 -5224.985647170473 1.974482038570541  8910.065241878983 -4539.904997404682 2.869155310578822  9238.79532510963 -3826.834323658716 3.860908272444555  9510.565162949579 -3090.169943755497 4.852661234311658  9723.699203975842 -2334.4536385629 5.747334506322807  9876.883405951001 -1564.34465040468 6.457351235056861  9969.173337331289 -784.5909572783328 6.913210036129005  9969.173337331546 784.5909572750695 106.2591453724857  9876.883405952116 1564.344650397643 105.9009706002179  9723.699203978225 2334.453638552975 105.3431003133595  9510.565162954143 3090.169943741452 104.6401427424995  9238.7953251169 3826.834323641162 103.860908272466  8910.065241889364 4539.904997384312 103.0816738024315  8526.40164354859 5224.985647146975 102.3787162315684  8090.169943758854 5877.852522911823 101.8208459447052  7604.059656011831 6494.480483288346 101.4626711724317  7071.067811878895 7071.067811852055 101.339252557008  6494.480483314509 7604.059655989487 101.462671172421  5877.852522936711 8090.169943740771 101.8208459446869  5224.985647170473 8526.401643534191 102.3787162315459  4539.904997404682 8910.065241878983 103.0816738024095  3826.834323658716 9238.79532510963 103.8609082724469  3090.169943755497 9510.565162949579 104.6401427424853  2334.4536385629 9723.699203975842 105.3431003133512  1564.34465040468 9876.883405951001 105.9009706002137  784.5909572783328 9969.173337331289 106.2591453724847  -784.5909572750695 9969.173337331546 106.2591453724857  -1564.344650397643 9876.883405952116 105.9009706002179  -2334.453638552975 9723.699203978225 105.3431003133595  -3090.169943741452 9510.565162954143 104.6401427424995  -3826.834323641162 9238.7953251169 103.860908272466  -4539.904997384312 8910.065241889364 103.0816738024315  -5224.985647146975 8526.40164354859 102.3787162315684  -5877.852522911823 8090.169943758854 101.8208459447052  -6494.480483288346 7604.059656011831 101.4626711724317  -7071.067811852055 7071.067811878895 101.339252557008  -7604.059655989487 6494.480483314509 101.462671172421  -8090.169943740771 5877.852522936711 101.8208459446869  -8526.401643534191 5224.985647170473 102.3787162315459  -8910.065241878983 4539.904997404682 103.0816738024095  -9238.79532510963 3826.834323658716 103.8609082724469  -9510.565162949579 3090.169943755497 104.6401427424853  -9723.699203975842 2334.4536385629 105.3431003133512  -9876.883405951001 1564.34465040468 105.9009706002137  -9969.173337331289 784.5909572783328 106.2591453724847  -9969.173337331546 -784.5909572750695 106.2591453724857  -9876.883405952116 -1564.344650397643 105.9009706002179  -9723.699203978225 -2334.453638552975 105.3431003133595  -9510.565162954143 -3090.169943741452 104.6401427424995  -9238.7953251169 -3826.834323641162 103.860908272466  -8910.065241889364 -4539.904997384312 103.0816738024315  -8526.40164354859 -5224.985647146975 102.3787162315684  -8090.169943758854 -5877.852522911823 101.8208459447052  -7604.059656011831 -6494.480483288346 101.4626711724317  -7071.067811878895 -7071.067811852055 101.339252557008  -6494.480483314509 -7604.059655989487 101.462671172421  -5877.852522936711 -8090.169943740771 101.8208459446869  -5224.985647170473 -8526.401643534191 102.3787162315459  -4539.904997404682 -8910.065241878983 103.0816738024095  -3826.834323658716 -9238.79532510963 103.8609082724469  -3090.169943755497 -9510.565162949579 104.6401427424853  -2334.4536385629 -9723.699203975842 105.3431003133512  -1564.34465040468 -9876.883405951001 105.9009706002137  -784.5909572783328 -9969.173337331289 106.2591453724847  784.5909572750695 -9969.173337331546 106.2591453724857  1564.344650397643 -9876.883405952116 105.9009706002179  2334.453638552975 -9723.699203978225 105.3431003133595  3090.169943741452 -9510.565162954143 104.6401427424995  3826.834323641162 -9238.7953251169 103.860908272466  4539.904997384312 -8910.065241889364 103.0816738024315  5224.985647146975 -8526.40164354859 102.3787162315684  5877.852522911823 -8090.169943758854 101.8208459447052  6494.480483288346 -7604.059656011831 101.4626711724317  7071.067811852055 -7071.067811878895 101.339252557008  7604.059655989487 -6494.480483314509 101.462671172421  8090.169943740771 -5877.852522936711 101.8208459446869  8526.401643534191 -5224.985647170473 102.3787162315459  8910.065241878983 -4539.904997404682 103.0816738024095  9238.79532510963 -3826.834323658716 103.8609082724469  9510.565162949579 -3090.169943755497 104.6401427424853  9723.699203975842 -2334.4536385629 105.3431003133512  9876.883405951001 -1564.34465040468 105.9009706002137  9969.173337331289 -784.5909572783328 106.2591453724847  10000 0 31.89835720242621  10000 0 56.72642613091843  10000 0 81.55449505941066  0 10000 31.89835720242621  0 10000 56.72642613091843  0 10000 81.55449505941066  -10000 0 31.89835720242621  -10000 0 56.72642613091843  -10000 0 81.55449505941066  0 -10000 31.89835720242621  0 -10000 56.72642613091843  0 -10000 81.55449505941066  3890.561977844704 -3980.209838863507 160.7597486742596  -3980.209838863506 -3890.561977844704 160.7597486742596  3980.209838863507 3890.561977844706 160.7597486742593  -3890.561977844705 3980.209838863507 160.7597486742596  6001.263989538736 499.1066634467051 302.0612829446421  -499.1066634467059 6001.263989538737 302.0612829446418  -6001.263989538736 -499.1066634467031 302.0612829446422  499.1066634467035 -6001.263989538736 302.0612829446422  -2286.755605112798 2297.05646075582 788.4394276505062  2297.056460755819 2286.755605112797 788.4394276505071  2286.7556051
[...]
<PointData  Vectors="f_32-0"> 
<DataArray  type="Float64"  Name="f_32-0"  NumberOfComponents="3" format="ascii">8.7350209919031752e-02 4.2531927126482467e-02 -1.1488363104431175e-03  -4.2960422837382869e-02 8.6783430125571479e-02 -1.1420608234177657e-03  -8.4933189487561525e-02 -4.2040571830127486e-02 -1.1176917217755463e-03  4.2591728266686564e-02 -8.6876536854404121e-02 -1.1428972836242757e-03  -3.4671881872170576e-04 -2.2127774217702972e-05 6.3961223555304276e-06  -2.2614758743507727e-05 7.3340837898690358e-05 -1.4983725590538760e-05  2.0785206418170299e-04 1.7427264353944342e-05 -2.0307190567092185e-06  -1.2350425484393121e-05 3.9767208976183621e-04 1.5939652870462425e-05  4.1188649745892511e-04 -7.3302107364724557e-05 -1.2273551916675850e-04  -5.3951946079775061e-05 -3.2792005660577774e-05 1.1531456154227718e-05  -2.5097510922881015e-04 4.8869783403395183e-05 -7.5537114608493965e-05  -6.3506831665113917e-05 -3.6451557745529852e-04 -1.0850038760468623e-04  6.6800116631593048e-02 2.6732408217134362e-02 9.8753597783086206e-02  -3.9213071198907642e-02 6.5427711256739240e-02 5.3092130247658777e-02  -6.4708402343349777e-02 -4.0691924072083510e-02 2.7167155821987806e-02  3.3136294178302585e-02 -6.7153836345799064e-02 8.2359480850600228e-02  2.7615079719923652e-01 1.3896228757065698e-01 -3.3408288843321593e-03  1.9856962281942146e-02 5.0679327487993565e-03 -2.4680001818058815e-04  1.9195862720979709e-01 2.2897218914079942e-01 -2.5277962862914239e-03  2.7876266345791900e-01 9.5907824258185101e-02 -2.7375664050396696e-03  1.9338306041282515e-02 8.8235447050753289e-03 -1.6886356952670959e-04  1.0739185893708994e-01 1.0072774794878964e-01 -7.7106391189651576e-04  8.3015469322084270e-02 2.9587979215739201e-02 -3.3290693709496971e-04  1.9925963072512884e-01 9.1314233686751650e-02 -6.0011683357295799e-04  1.9748095698269971e-01 1.1494680345583495e-01 -5.1881283584298869e-04  2.2443125547357123e-01 1.8965819375662812e-01 -5.8147408610565549e-04  5.8778808704320361e-02 2.0370542143622397e-01 -4.2239183972488738e-04  1.0907733598594004e-01 1.9692894595827576e-01 -6.0139382191109808e-04  2.2746467112039447e-02 4.9341007404652207e-02 -2.2875341867093586e-04  3.0688707438393383e-02 4.7448975050146155e-02 -3.4598390246310003e-04  2.2583083708854010e-01 2.0022777582525500e-01 -2.0654687735613859e-03  1.3631031402532464e-02 4.8203152494516475e-02 -4.2663275132618110e-04  6.1790901678869092e-03 4.0028872417260511e-02 -4.1580717614812102e-04  1.8934096220387373e-01 2.5113830190515141e-01 -3.1084261641760955e-03  1.0091319837186844e-02 3.4466513320960887e-02 -4.5746341265968195e-04  -1.2470499333983773e-01 2.5617667915674630e-01 -3.0925531155911999e-03  -5.2763443539270627e-03 2.0614465713474389e-02 -2.5700158317585074e-04  -2.2868642438643652e-01 1.9328659153618757e-01 -2.5389036807689836e-03  -1.0004023421333978e-01 2.8977991069921322e-01 -2.8468818783446673e-03  -8.5707732781540383e-03 1.9312291721510087e-02 -1.6741039187040114e-04  -1.0254793287946158e-01 1.0831388042510999e-01 -7.8101645716151420e-04  -3.0002317560668967e-02 8.1841900011051252e-02 -3.3121139346002409e-04  -8.7821010131501814e-02 1.9438591673280683e-01 -5.8163731293337450e-04  -1.1630188328149763e-01 2.0955005891601081e-01 -5.3811417421705215e-04  -2.0160110958108654e-01 2.4747968223710171e-01 -6.3022766647557159e-04  -2.1956622339405735e-01 5.6453858933535890e-02 -4.4176058089225636e-04  -1.9917312429035383e-01 1.0912989235463284e-01 -6.0584063734872497e-04  -4.8620420345834435e-02 2.2362139930710838e-02 -2.2545379902901811e-04  -4.7853447150023140e-02 3.1519999565517855e-02 -3.5164095315589304e-04  -2.0268147666933575e-01 2.3931581255289880e-01 -2.1335101723360286e-03  -4.8501179654304089e-02 1.3584191277532076e-02 -4.2939160017728336e-04  -4.1748580737723980e-02 6.2159815104620405e-03 -4.3218448839550975e-04  -2.7022425048683002e-01 2.0812082227611084e-01 -3.3563798566489749e-03  -3.5069447868005893e-02 1.0364838556037070e-02 -4.6581853675070340e-04  -2.4422994888794350e-01 -1.1548760432700074e-01 -2.9435303050354593e-03  -2.0824849414130323e-02 -5.3728414042744053e-03 -2.6010550596123168e-04  -1.8471247514984493e-01 -2.1562124709923144e-01 -2.4155372576048890e-03  -2.7649166933330888e-01 -9.3770344217563528e-02 -2.7095597514217853e-03  -1.9189078586226194e-02 -9.1601444751567476e-03 -1.6950927189644349e-04  -1.0514766211018346e-01 -9.6519034655790731e-02 -7.4653679256346582e-04  -8.1618682234886136e-02 -2.8995736074655082e-02 -3.2645037337774804e-04  -2.0301493311068550e-01 -8.8404114392969108e-02 -5.9890699258624287e-04  -2.1464311672619915e-01 -1.1587856078633574e-01 -5.4485506232687067e-04  -2.5790745636177964e-01 -2.0573297381296432e-01 -6.5126899794248460e-04  -5.3766375507174224e-02 -2.3634035750383492e-01 -4.6180202743443415e-04  -1.1126838950535045e-01 -2.0315134651680214e-01 -6.1874261892219836e-04  -2.2452151895440510e-02 -4.8606181012443149e-02 -2.2604512859344275e-04  -3.2096479778562823e-02 -4.6711441132684731e-02 -3.5019459142062657e-04  -2.6948416333408243e-01 -2.1238554760818865e-01 -2.3097660625111698e-03  -1.3432576745376585e-02 -4.8453774524569060e-02 -4.2860118081800686e-04  -6.0823824062832951e-03 -4.1307722136667932e-02 -4.2732941483377936e-04  -2.0973296352165482e-01 -2.7207465775182810e-01 -3.3808505722944357e-03  -9.5243828507250456e-03 -3.4254503792550905e-02 -4.5358750769707343e-04  1.3429991568173938e-01 -2.6955700522835135e-01 -3.2589850474474169e-03  5.0479678902774997e-03 -2.0019513379694331e-02 -2.4885213675350683e-04  2.5092955346447959e-01 -2.0879711646438848e-01 -2.7587993547156511e-03  1.1260236045985085e-01 -3.0983318158852569e-01 -3.0669275379075862e-03  7.6437815421020816e-03 -1.9712010198407737e-02 -1.6549665733250359e-04  1.0587191127193100e-01 -1.0991656597335478e-01 -8.0045419902007552e-04  3.0277734522613724e-02 -8.2825370859034630e-02 -3.3515816702470240e-04  8.8815672677682020e-02 -1.9859232049936346e-01 -5.9210652151879203e-04  1.1537930225120430e-01 -2.1238850391542796e-01 -5.4043243573808979e-04  2.0520024865268172e-01 -2.5740065174937227e-01 -6.4961995695986274e-04  2.3636748889266096e-01 -5.4059978396733467e-02 -4.6259916736493529e-04  2.0796661119765017e-01 -1.1379056356315750e-01 -6.3364816890714890e-04  4.8798555910786301e-02 -2.1793385666000326e-02 -2.2397016230379059e-04  4.7020884479878164e-02 -3.1482494990490120e-02 -3.4824048161464046e-04  2.0869419065895059e-01 -2.5278481724476343e-01 -2.2217480204922086e-03  4.8076151890566292e-02 -1.3609191976817656e-02 -4.2600566570182588e-04  4.0743153509159816e-02 -6.0892818025722857e-03 -4.2175957753344534e-04  2.7298934666645930e-01 -2.1298523347852383e-01 -3.3984362724080027e-03  3.5436395908811952e-02 -9.9145718715140992e-03 -4.6930435979100101e-04  4.2683998760331479e-02 1.0521654021685467e-01 1.2624239678318849e-01  6.2908147049480001e-02 4.5217297254447376e-02 1.2234815767629628e-01  1.0182803912329461e-02 1.6916694729130644e-01 6.3697283362598223e-02  4.4030575797503718e-02 4.0625946112642794e-02 2.6416733986346266e-02  5.4860504504171126e-02 6.0316401706654248e-02 1.0477466623058629e-02  9.6265572281150433e-03 7.2317935445144699e-02 1.2817789870159892e-02  5.0411510605575950e-02 4.0757122095977032e-02 4.0659070067423876e-03  4.7640329536265381e-02 2.7323753972170430e-02 4.4721952171959799e-03  4.6359781145599285e-02 2.1620249802782182e-02 -1.3064763060269316e-02  4.7196854479194562e-02 2.6419674169187855e-02 -2.9879152771902194e-02  -5.4170516697784818e-03 8.3091607376423640e-02 -2.5352731285813345e-02  3.0084063228668939e-02 3.6457234936116391e-02 -1.0354620945038442e-02  5.9184040603305184e-02 3.1712983587817746e-02 7.8012655185097524e-03  6.0327408458439494e-02 3.3000320582723702e-02 2.2262481959574681e-02  1.3363099886104843e-01 4.2915461986753915e-03 1.8202553393091365e-02  5.2710511905998042e-02 3.8836844764831138e-02 2.8621610252426689e-02  4.2174306070312403e-02 6.0056377312927955e-02 3.8674049608271296e-02  1.3418823860463253e-01 3.2683975914482195e-02 6.3538805139504786e-02  3.1733082740213268e-02 5.2071153028169670e-02 5.0459565544097786e-02  -9.0036469542042419e-02 4.1220391064598912e-02 7.0326442100993550e-02  -2.9474005137853782e-02 6.9974597587492790e-02 4.7334323876602143e-02  -1.6264064746326748e-01 8.7562965230893013e-03 5.9792053064435316e-02  -4.2993334528743155e-02 4.8167983162979731e-02 3.9496113775029665e-02  -5.8356096406601519e-02 4.5932293224154611e-02 2.0814091908419270e-02  -7.8535398965945968e-02 1.3221222774999136e-02 1.6912352052859125e-02  -4.0749488514041629e-02 4.1920771307021390e-02 -6.2846701631563331e-03  -2.3923359973802374e-02 5.3543261326814105e-02 -6.2085707508131097e-03  -1.4588349372928359e-02 5.2876601193015613e-02 1.3806847003705490e-03  -2.3575842235238342e-02 5.0781234538500086e-02 -1.0441259047573063e-02  -9.0994791234670511e-02 -1.4128533375471049e-02 -1.5983537795833513e-02  -3.8903661327166904e-02 2.8589593436626044e-02 -4.7071057437384446e-03  -2.6795784588198243e-02 5.7707099113637840e-02 1.5623033265466818e-02  -3.9462190542576041e-02 6.8358025235301823e-02 2.8345790514849402e-02  6.6666809441937955e-03 1.4223331589770621e-01 3.4584521209340358e-02  -4.2369547761553800e-02 5.7615054335735778e-02 6.2183983730518713e-02  -5.9697848811648892e-02 4.5700611976256050e-02 7.9228710862559629e-02  -2.8244597203558135e-02 1.4492307179101382e-01 1.0040188009907897e-01  -5.6499438439002840e-02 2.2495893991241463e-02 4.6775583096915582e-02  -4.1583445270418462e-02 -8.0197392913672089e-02 4.3849577440199503e-02  -6.9882749988187678e-02 -2.8707277801465307e-02 3.3575046807024472e-02  -1.3052947426711743e-02 -1.5672993060550375e-01 3.8241480312651753e-02  -4.2908546508265477e-02 -3.6399544300141327e-02 1.9663549645407338e-02  -5.2999782091359061e-02 -6.1115384246290753e-02 -1.6137232545854114e-03  -1.0608687370197361e-02 -6.9921345934467014e-02 -4.5167202274813429e-03  -5.1826616887353114e-02 -3.8877952736183413e-02 -1.3906792751583156e-02  -5.0660412451847742e-02 -1.7112581664911395e-02 6.6371649802900610e-03  -6.0104328767844224e-02 -1.8446463647416218e-02 1.4839291403923278e-02  -4.8660780196119045e-02 -1.7296191108569444e-02 6.1510769406104143e-03  1.8104352867747350e-02 -1.0566400961174703e-01 8.1169403683167274e-03  -2.4516184740591612e-02 -3.8983732544312928e-02 9.8437810962211398e-03  -6.1091700477513750e-02 -2.6502128978113774e-02 2.1989845849415754e-02  -7.5878915582325193e-02 -3.4882146052032957e-02 6.2504812373218407e-02  -1.6244109385386993e-01 1.1372240735159496e-02 6.8948269054336042e-02  -5.5986184442691211e-02 -3.5878788761042051e-02 7.5381182343146905e-02  -5.0658213342821265e-02 -6.9902017699617930e-02 1.0500302426507727e-01  -1.4736099651011056e-01 -2.8096793551308400e-02 1.1830098952168758e-01  -2.6574698934597421e-02 -5.3115221832619436e-02 7.8822093817139852e-02  9.9667599555391798e-02 -4.4886743530875371e-02 1.0489124455513878e-01  3.2070675970777743e-02 -6.2838233966289944e-02 1.2303949559876506e-01  1.7633187112565768e-01 -8.2222246732093114e-03 1.2308028196834829e-01  5.8599457627024364e-02 -4.4635522927521105e-02 9.5572070019158240e-02  6.6264252909298466e-02 -4.5869674289557162e-02 6.3081376454127258e-02  7.8093567323552562e-02 -9.1059746174543318e-03 4.2563532537793457e-02  4.7608833276640693e-02 -4.8003527116410746e-02 1.1991791683510057e-02  2.3829991107872643e-02 -5.0007247394717624e-02 6.8094872381621587e-03  1.4917343597524415e-02 -5.6229504631823926e-02 1.1368508100840519e-02  1.5549176650509484e-02 -5.0839169087841633e-02 6.8158322250381027e-03  1.0280275642851086e-01 1.6304386567602316e-02 1.3693026672599350e-02  4.2486370489502275e-02 -2.5874106753189238e-02 2.4739972383146656e-02  2.6197106678478781e-02 -5.4770353478062243e-02 2.9762475921812383e-02  3.4233345148052069e-02 -6.8075448408533995e-02 5.2734580389185381e-02  -2.0660577797680900e-03 -1.5216083837867267e-01 4.4267854623477994e-02  3.5040456991440976e-02 -5.5059457145380922e-02 4.7176698024935848e-02  6.4399067829717452e-02 -5.4891606282883219e-02 8.0072678045751994e-02  3.0386773686773540e-02 -1.5522159302160293e-01 1.1648744269115908e-01  5.3116582489179297e-02 -2.3878564719845511e-02 9.6137886225304447e-02  2.5791806172163867e-01 3.4593855662783772e-02 5.5247262976439084e-03  2.1244913554830064e-01 2.9837278441792445e-02 2.5736822984440761e-02  1.2563458775016681e-01 2.7365841955748746e-02 5.4508111197057660e-02  -4.0075972362123728e-02 2.5708467878089564e-01 -6.2310676170700017e-03  -3.8841339648188505e-02 2.1049388334343336e-01 2.5523355627716134e-03  -3.8679383076038923e-02 1.2354474113694024e-01 2.1488816768286872e-02  -2.5612660108735597e-01 -4.0565996803370051e-02 -1.1656546868967690e-02  -2.0937693486751943e-01 -4.0064109930494314e-02 -8.8900883214772658e-03  -1.2257286286783639e-01 -4.0201290113790651e-02 4.1810079659520437e-03  3.7227951098864551e-02 -2.5758524799200250e-01 5.0288852076177360e-04  3.4316413633002328e-02 -2.1206518851632714e-01 1.6345165698563275e-02  3.3112112798450360e-02 -1.2536173447449417e-01 4.1465159868453269e-02  1.0265866303010099e-03 1.5184864069556596e-03 4.1365744258423006e-05  1.4012109356378196e-03 -9.2468966396693311e-04 4.0941602456653690e-05  -1.0394593528177218e-03 6.3574660081980176e-04 3.4989091162987823e-05  -7.9044690260372352e-04 -1.1938499540467132e-03 3.5073215549601478e-05  1.4036857140985355e-04 1.2159415443019218e-05 -2.8104211797570351e-05  -1.2481861451896699e-05 1.0370469066760031e-04 -2.0909880568232744e-05  -7.8398096681774027e-05 -1.0081369562751824e-05 -1.5945213944954110e-05  4.0935325330107684e-06 -1.8326261457447384e-04 -3.6526566221522484e-05  2.1199102531434030e-03 -1.8511029152526216e-03 1.1888047455168884e-03  -2.8407854467045746e-03 -2.8954209044160959e-03 1.7158799098043738e-03  -3.3352286477246894e-03 3.3639621581442523e-03 2.0075146093088713e-03  3.6702314350996832e-03 3.5979778840110632e-03 2.1834593059679333e-03  2.5909340060203658e-04 -2.4247643235148034e-04 2.7107061290505314e-05  3.1218243991966270e-04 2.4068890189327683e-04 5.5126611507649524e-05  -4.6635317997782515e-04 2.3520076427411166e-04 -2.0313032406334340e-05  -1.8267070659304499e-04 -6.2834075107253513e-04 -7.3732093437316090e-05  3.6604541717108664e-04 -8.1039248348541051e-04 -3.9558373002367610e-05  -3.7862812930959612e-04 8.0629469057924845e-04 -3.7898518525818835e-05  -7.4804396255180768e-04 -3.8026138480909367e-04 -3.2663112762467233e-05  8.2667282271044619e-04 3.6665116976830598e-04 -4.0064066819752783e-05  1.5051626685632334e-04 -4.5296577894506182e-04 -1.8698959403376145e-04  3.8710894995229721e-04 1.1410715277170303e-04 -1.5566341238184409e-04  -1.9749384165180351e-04 -3.8186275661519127e-05 -7.1824185168405872e-05  -1.0529506683816048e-04 2.8686028044949696e-04 -1.1976498684320034e-04  8.3595255470258968e-04 -2.5267301264346589e-04 2.0164040749548476e-05  5.6079370784938541e-04 1.6913465531622957e-03 3.8945152265445919e-05  -1.2795379386163954e-03 3.9203472162556180e-04 3.0396570381276466e-05  -4.1394570430713701e-04 -1.3120440775261186e-03 3.0857465985560867e-05  -2.1609719704434745e-03 2.3868307152815032e-03 -1.5111674567011824e-03  3.2009692920855954e-03 2.9223355959580493e-03 -2.0323217502373511e-03  -4.0758980540744078e-03 -3.7662122127832829e-03 -2.6018856386068622e-03  3.5444551831415165e-03 -3.6874175413548200e-03 -2.4341271177025512e-03  4.5455493052290752e-05 -5.3295524122988231e-04 -1.0755370272317408e-05  3.8858572937579845e-05 2.7406608111104431e-04 -7.6630177255929484e-06  8.8368565694682869e-04 2.4281110983787252e-04 -1.2476436222573299e-05  -6.7944124111998252e-04 -6.7888692216398430e-05 -1.2205149027595422e-05  -2.2537371529856064e-03 7.1985513950794631e-03 -4.0742192944568933e-03  9.9392813709760046e-03 2.1642721734729761e-03 -5.4010877625554864e-03  -9.3109006753150092e-03 -2.9313686181278559e-03 -5.2715443525124996e-03  2.9480533798577524e-03 -8.7218225402596744e-03 -4.9828847088711076e-03  4.6405277124570809e-05 -1.8019689775080499e-04 -2.1903082560633514e-05  -1.5719864661884164e-04 2.2334421864272011e-05 -2.7264775763715522e-05  1.8057625243188068e-04 -3.2993853060109118e-05 -3.2130150108987041e-05  -1.0776968690457174e-08 1.2533297920500541e-04 -1.8404261790132990e-05  -4.4754282787215667e-04 9.8530658812086324e-04 4.7604391207793150e-05  1.4138305737544815e-03 5.4642509518720492e-04 6.0689581152310338e-05  -1.3529941639217158e-03 -5.4744202328881053e-04 6.0367784944412000e-05  3.3108904342661789e-04 -8.0710634035923172e-04 3.6015096525653857e-05  2.9746779997717344e-05 3.5654374090280747e-05 -4.4849489438107675e-06  -3.7492212204776397e-03 3.9050305715407196e-03 2.5021046050108627e-04  -3.7770955140070048e-03 -4.0103810835059768e-03 3.2543034586668130e-04  6.2925583548710902e-03 -5.9950096177517022e-03 5.0776469442228352e-04  4.7187905020405450e-03 4.9350043185299747e-03 3.9114855952913333e-04  3.4982903467100286e-03 5.9874023734591275e-03 -3.7998324036570999e-03  -4.1707007243662548e-03 -6.9884012534287884e-03 -4.4534292869829357e-03  5.1508972083998891e-03 -1.3080440668186105e-03 -2.8216830755839282e-03  -3.1183524406784768e-03 1.9808835906803181e-03 -2.0157364340526386e-03  -8.4713229695378557e-04 1.5774226510122189e-03 8.8543549399053939e-06  4.4249187891230225e-04 -8.5909092335653160e-04 3.9046657014957540e-06  1.2138287417626276e-03 6.3024581405872005e-04 6.1025924794078719e-06  -1.6611100472236301e-03 -8.4450599059635121e-04 6.9792764338081912e-06  -3.0935504046900865e-05 6.9989890957000494e-04 -2.9593418254745440e-04  7.8548557715795949e-04 4.5469457347903473e-05 -3.3084845836582990e-04  5.2025465825212487e-05 -9.7343101165515836e-04 -4.1031334697503739e-04  -5.8496580485589515e-04 -2.7650574430412665e-05 -2.4674944129586649e-04  1.8496633876219733e-04 8.1779764173633176e-05 -3.4761742407969080e-05  -1.5826286703608225e-04 -7.8860837576018891e-05 -2.8261176406236657e-05  -8.9552536916652495e-05 2.7827801334922870e-04 -5.3775033818165613e-05  1.3049390838781134e-04 -3.1846212792224201e-04 -5.9128608988505451e-05  -6.7110873255727738e-05 5.8579686984298917e-04 9.3493208408222054e-06  3.5062752635388604e-04 -2.1533578528781580e-04 9.8349620747239651e-06  1.5128768670243255e-04 -4.3923232455014366e-04 4.1552018483241387e-06  -4.9089134432441623e-04 1.4706798339716327e-05 8.5575580531605748e-06  1.7710608024494416e-03 1.9617760903580029e-03 -1.5346927713069260e-04  2.8790344309235021e-03 -2.4608864024267024e-03 -1.8597017306473879e-04  -1.6042551214658532e-03 -2.0482265834124800e-03 -9.0653582793206842e-05  -2.0012313718368430e-03 1.8084738069850837e-03 -1.5675506014305206e-04  -5.8310062662584655e-03 -5.3594922344056750e-03 1.1863391502453561e-04  8.6589029321392456e-03 -9.3278185560265389e-03 2.0151346770579134e-04  -5.0867040387231281e-03 5.4824821244223842e-03 1.1647662681740310e-04  1.2149860581081421e-02 1.1294747282622102e-02 2.6720852868343065e-04  -4.3554238647225235e-05 2.2338663599208172e-05 -1.3605561009036492e-05  -2.0558951990455622e-05 -3.2263222519381937e-04 -1.1131498611677687e-04  2.2349667189043222e-05 2.9804291548749451e-04 -1.0227991169003191e-04  5.7856267233470944e-05 -2.7204970804797295e-05 -1.8500062384742726e-05  -1.7114128853822495e-04 1.4112950929033550e-04 -9.7250539570782848e-05  2.3274697576785265e-04 2.5854418881712983e-04 -1.5290966274259034e-04  2.4217239430669070e-05 4.7908893903882430e-05 -2.3040624036665407e-05  -3.4179446993463339e-04 -3.7341875148105033e-04 -2.1876799070511392e-04  -5.1613503070567996e-03 -1.5948474069258508e-03 1.6520983343094992e-03  -6.2479314627392251e-05 -2.1872338678651993e-04 -1.3497502880527057e-04  -3.3985457447290339e-03 -7.0567800208438201e-03 2.8879916284232105e-03  4.9022737136088590e-03 1.5732433175367868e-03 1.5954759637659751e-03  -6.1881556582874398e-04 1.7064555784811254e-04 3.2359565582734901e-04  1.7047061035209237e-04 9.4159701971402099e-05 4.7802141509599747e-05  1.4321975077942481e-04 -1.9294886120916778e-05 4.9911389162540162e-05  6.4575938515255268e-05 -1.2760753439895007e-04 4.0542611937169298e-05  -1.0464188457009649e-03 3.2536100927376462e-03 1.6643066204949283e