<?xml version="1.0"?>
<VTKFile type="UnstructuredGrid"  version="0.1"  >
<UnstructuredGrid>
<Piece  NumberOfPoints="7863" NumberOfCells="15264">
<Points>
<DataArray  type="Float64"  NumberOfComponents="3"  format="ascii">0 0 0  0 1 0  1 1 0  1 0 0  0.25 0.15 0  0.25 0.4 0  0.5 0.4 0  0.5 0.15 0  0.6 0.6 0  0.6 0.85 0  0.75 0.85 0  0.75 0.6 0  0 0.9499999999997918 0  0 0.8999999999995836 0  0 0.8499999999996529 0  0 0.7999999999999998 0  0 0.7500000000003466 0  0 0.7000000000006934 0  0 0.6500000000010401 0  0 0.6000000000013869 0  0 0.5500000000017335 0  0 0.5000000000020587 0  0 0.4500000000018723 0  0 0.4000000000016644 0  0 0.3500000000014564 0  0 0.3000000000012483 0  0 0.2500000000010403 0  0 0.2000000000008322 0  0 0.1500000000006241 0  0 0.100000000000416 0  0 0.05000000000020799 0  0.04999999999989965 0 0  0.09999999999981467 0 0  0.1499999999997036 0 0  0.1999999999995579 0 0  0.2499999999994121 0 0  0.2999999999992664 0 0  0.3499999999991206 0 0  0.3999999999989749 0 0  0.4499999999988292 0 0  0.4999999999986943 0 0  0.5499999999988151 0 0  0.5999999999989468 0 0  0.6499999999990784 0 0  0.69999999999921 0 0  0.7499999999993417 0 0  0.7999999999994734 0 0  0.8499999999996051 0 0  0.8999999999997368 0 0  0.9499999999998684 0 0  1 0.04999999999989965 0  1 0.09999999999981467 0  1 0.1499999999997036 0  1 0.1999999999995579 0  1 0.2499999999994121 0  1 0.2999999999992664 0  1 0.3499999999991206 0  1 0.3999999999989749 0  1 0.4499999999988292 0  1 0.4999999999986943 0  1 0.5499999999988151 0  1 0.5999999999989468 0  1 0.6499999999990784 0  1 0.69999999999921 0  1 0.7499999999993417 0  1 0.7999999999994734 0  1 0.8499999999996051 0  1 0.8999999999997368 0  1 0.9499999999998684 0  0.9499999999997918 1 0  0.8999999999995836 1 0  0.8499999999996529 1 0  0.7999999999999998 1 0  0.7500000000003466 1 0  0.7000000000006934 1 0  0.6500000000010401 1 0  0.6000000000013869 1 0  0.5500000000017335 1 0  0.5000000000020587 1 0  0.4500000000018723 1 0  0.4000000000016644 1 0  0.3500000000014564 1 0  0.3000000000012483 1 0  0.2500000000010403 1 0  0.2000000000008322 1 0  0.1500000000006241 1 0  0.100000000000416 1 0  0.05000000000020799 1 0  0.25 0.3500000000002234 0  0.25 0.3000000000004466 0  0.25 0.2500000000006611 0  0.25 0.2000000000003316 0  0.2999999999999999 0.15 0  0.3499999999999999 0.15 0  0.3999999999999999 0.15 0  0.45 0.15 0  0.5 0.2000000000000022 0  0.5 0.2500000000000046 0  0.5 0.3000000000000067 0  0.5 0.3500000000000087 0  0.4500000000000001 0.4 0  0.4000000000000001 0.4 0  0.3500000000000001 0.4 0  0.3 0.4 0  0.6 0.6499999999999999 0  0.6 0.6999999999999998 0  0.6 0.7499999999999999 0  0.6 0.7999999999999999 0  0.75 0.8 0  0.75 0.7500000000000001 0  0.75 0.7000000000000001 0  0.75 0.65 0  0.7000000000000145 0.6 0  0.649999999999899 0.6 0  0.6499999999996818 0.85 0  0.6999999999997106 0.85 0  0.2987828851411449 0.699325350601735 0  0.7568105424598444 0.2773422776226307 0  0.1795454545455548 0.565909090909074 0  0.8224999999997471 0.4374999999996759 0  0.4210672245123 0.8298112703689309 0  0.1704342645355456 0.817589228320629 0  0.4288291996927651 0.5807253322680467 0  0.6700168933784714 0.4454283174013861 0  0.8465566460363076 0.1536642418117631 0  0.6487495650826139 0.1583009537413474 0  0.1302432088118011 0.6870436331969506 0  0.4678571428571685 0.6999999999999645 0  0.3001247914658854 0.8712026118102825 0  0.3037919960474855 0.5294342885375104 0  0.130623183832229 0.4401092867706953 0  0.8659552483879646 0.3224251422433174 0  0.8736312978505528 0.5612537349962974 0  0.6245633418427496 0.3030766659003465 0  0.1250000000000379 0.2750000000005539 0  0.8734358317010626 0.8762010003539712 0  0.1254835060363831 0.1258252413885224 0  0.8749999999999343 0.7250000000000005 0  0.5181687217833718 0.5314910246240141 0  0.7500000000000194 0.1068693693694355 0  0.5185460717145034 0.8908201301560481 0  0.1043949820060815 0.9055901675413394 0  0.7472304391142466 0.4937115169957552 0  0.7437057827977005 0.3796800519519853 0  0.5837666239123878 0.0953941305957148 0  0.902362942345899 0.2218145421277327 0  0.1069592086353165 0.6081316226431639 0  0.5943281866118556 0.2221187317759835 0  0.09231256724200733 0.7788120293054371 0  0.2599118360316645 0.613680451156976 0  0.386610176029564 0.6631887582313238 0  0.2537946126497011 0.7917216350769677 0  0.9088286731471231 0.4704266021303271 0  0.5063995803351647 0.6198623457584774 0  0.3860058725664629 0.914148551469585 0  0.5069733898137954 0.7690591741519245 0  0.2189083152479363 0.9142871916137685 0  0.09240943628007152 0.353587386157095 0  0.3923666487137664 0.4973261685045393 0  0.9117702211709445 0.6463336145912728 0  0.2237945603996098 0.4867857348645567 0  0.9161970975027582 0.08252283236527229 0  0.3461519581374356 0.7752338663700789 0  0.6110313179874225 0.5139303735626758 0  0.08254453868152074 0.5295949336450964 0  0.5783651695896583 0.387014424669225 0  0.7680988053275425 0.1909346846843861 0  0.9202288100287571 0.8014462386955867 0  0.08317821648800833 0.2045345244679453 0  0.6743674448775834 0.2381773292297286 0  0.8014729691714902 0.9151682085422 0  0.1982142857142988 0.08392857142857235 0  0.9156947390731955 0.3830592165702195 0  0.2099925163896727 0.7117346125224077 0  0.8288873197852951 0.7991354001759553 0  0.1710420590992359 0.2009730661079498 0  0.8302601404977216 0.6362505489697606 0  0.8278972189280196 0.2432708264037497 0  0.1724373447570453 0.3750000000001119 0  0.8263815004216721 0.07675344797416643 0  0.6734552612001731 0.07775097080953899 0  0.6322765317037635 0.9278922409848336 0  0.3328795603068665 0.07550965653377333 0  0.4218141641894588 0.07552083333321569 0  0.7202413378918148 0.9252992098071467 0  0.3398398570642138 0.5956195883200471 0  0.1876245270259333 0.6393374142670434 0  0.5053993339633923 0.07647011170888637 0  0.0718750000000897 0.07187499999995482 0  0.9281249999999797 0.9281249999999464 0  0.4615331046556409 0.4767930683020147 0  0.8132809042322462 0.3596726603183649 0  0.8134265276406807 0.5108303348297808 0  0.4201515737436131 0.7514965833054841 0  0.9273040324515954 0.1585949917491647 0  0.06708721766401626 0.6750163115727243 0  0.56422475897686 0.4552131930394481 0  0.6791346043894576 0.5327473050102175 0  0.697255269395278 0.3214473484424947 0  0.2802981881263434 0.9339285714286927 0  0.5339285714285894 0.6802981881261965 0  0.1655838508805648 0.7568246324058057 0  0.07055580426794442 0.4304123740962421 0  0.3226088857382223 0.4646105576694787 0  0.5680970217443936 0.1590416415060358 0  0.4428489297902234 0.9319457679008186 0  0.9477157065683794 0.5858496809090185 0  0.9359768099749814 0.2904579204473128 0  0.1742846135096847 0.3003953810640202 0  0.06918270446438632 0.8409433163409716 0  0.8252358436657874 0.6976195482341206 0  0.5635633234700967 0.284788731469481 0  0.5521945854607904 0.9257613588772547 0  0.3635427058143873 0.8407659882482055 0  0.4499814782289108 0.6338364401188512 0  0.2390953482890149 0.8431241519968201 0  0.1517067680066363 0.9343448395931244 0  0.06539387153795677 0.3019693576901929 0  0.2575632692678596 0.06394502601111231 0  0.6555411638130636 0.3716910457745546 0  0.1608726846099766 0.5049389228359271 0  0.934949728583427 0.6997486429173009 0  0.2433845767894122 0.5499237975678901 0  0.939237790491481 0.8554484180187727 0  0.0630223880597205 0.1401119402987738 0  0.1348958333334102 0.06197916666672756 0  0.865104166666832 0.9380208333335958 0  0.7604230740984012 0.4373799400890658 0  0.5372647219903939 0.8402823937523813 0  0.1923510154511563 0.1420055354945893 0  0.8075445196362099 0.857996515152053 0  0.1885591087578553 0.4337380820533954 0  0.7105225609509752 0.1526657632181078 0  0.3666090240151971 0.7062960373879834 0  0.7966936723524515 0.3163062291281787 0  0.5508714508660905 0.570011516337836 0  0.4721626247170084 0.554486293857005 0  0.8002707048946301 0.5730607189697422 0  0.06641773621617075 0.9351618371252797 0  0.3665814154358935 0.5517819541861106 0  0.05442204514635005 0.7231523959702606 0  0.6284828997490257 0.05004553457671893 0  0.9398712002144101 0.5109326544100544 0  0.5433787542275291 0.7375061851781469 0  0.3375061851783711 0.9433787542277096 0  0.7215297270911555 0.05410988042852424 0  0.4797837765982246 0.8425479205787176 0  0.04271365523339227 0.5671101206092209 0  0.8714625424823598 0.3953934577117953 0  0.1490428061304692 0.875151828016147 0  0.2781199925553454 0.4510243744904079 0  0.5565677762207972 0.3450127136714147 0  0.1940357533673813 0.2535689772727561 0  0.3766403934953488 0.04740981637292114 0  0.2545866346220484 0.6725938042819365 0  0.3074605043080991 0.8017072464925095 0  0.8056636005117194 0.7469721857454302 0  0.1269450100636947 0.56224828215199 0  0.05350185589295817 0.249017632611271 0  0.674777132742694 0.8963085370316726 0  0.5117683592953793 0.4496907486941994 0  0.1169833904185793 0.8254360225452316 0  0.04504201214567945 0.4768561077888308 0  0.3055599085954928 0.6382433889748717 0  0.9450727948239286 0.7538737512009489 0  0.4306417842714623 0.8796919592677241 0  0.7923856483923215 0.141724914569402 0  0.8728297214303689 0.04978308383419468 0  0.9486377781753648 0.4273242585722439 0  0.437541018947418 0.5220595462426839 0  0.9484027151197005 0.346539625994936 0  0.7281038251562784 0.2284601524070051 0  0.8668606734410613 0.6709737204112667 0  0.690214514677936 0.4804244848868111 0  0.8493847380621981 0.4812225068388546 0  0.1333737946122648 0.326539344567937 0  0.7219350493285639 0.5495541898924469 0  0.6750000000008667 0.9530034763360794 0  0.6303201059992649 0.106643697324949 0  0.7119144016103087 0.4146430422909549 0  0.3761225040737161 0.1044665480092788 0  0.1419061815543131 0.6445935072656427 0  0.5010710576848406 0.9417334264593 0  0.8586198319213173 0.207759071572462 0  0.9472598698250957 0.05274013017491718 0  0.2988553637576897 0.7535345997678686 0  0.7805552894816058 0.05315972730291021 0  0.4120655818059855 0.7045889958912197 0  0.7495113277877659 0.3294098108501303 0  0.6308381164613092 0.2525569635330791 0  0.05405789668501901 0.6246
[...]
<PointData  Scalars="f_882"> 
<DataArray  type="Float64"  Name="f_882"  format="ascii">1.6271059058148441e+04  3.7827552287584517e+01  7.0016087368823662e-03  1.2852581924600057e-01  1.1357074257200687e+04  2.0170128255729051e+04  1.1619197830738068e+01  4.8127836782636734e+02  3.1489622850644639e-01  4.0634170470601073e-03  3.5567827720467464e-05  1.7460476495129722e-05  5.7077205214295255e+01  6.7366317756861278e+01  7.9948024318450607e+01  9.6793951338157612e+01  1.2259300791700564e+02  1.5311856687784203e+02  1.9444561780598946e+02  2.5012242880296378e+02  3.0963271491803738e+02  3.9113777621966574e+02  4.9468491464310262e+02  6.2197876692814441e+02  7.9276158820397927e+02  9.9609781558883731e+02  1.2779357330118057e+03  1.6109188082248420e+03  2.1690419607110066e+03  2.6460980539783309e+03  3.3592596394827765e+03  1.1242616618738759e+04  1.2615193548372239e+04  1.0030404662348574e+04  5.5291151564515394e+03  2.9220785318859812e+03  1.6583639403135749e+03  8.7557648902704716e+02  4.8428803661811884e+02  2.4616091360857996e+02  1.2106100367506234e+02  4.7125595183981751e+01  1.5192113127915237e+01  4.8190143192849577e+00  1.7479602119412117e+00  8.9800454711731892e-01  5.6315308918865326e-01  4.0214753507053785e-01  3.6978871880593345e-01  3.4886430295493803e-01  3.1761423109161308e-01  3.6485521662160342e-01  3.7020046895227043e-01  3.2732866621646001e-01  2.7708454301519331e-01  2.2325715423460263e-01  1.7551254466447341e-01  1.3422616768660406e-01  1.0219553099655695e-01  7.5504319742524348e-02  5.6699350777665490e-02  4.1545638747386926e-02  3.0218258083675960e-02  2.1876144616973455e-02  1.5476907535187457e-02  1.1074760020487812e-02  7.6126627597979885e-03  5.4121425607582679e-03  3.7324501213336467e-03  9.1887542145919034e-04  1.6973693016499459e-04  3.4881530618302505e-05  2.5772662710844782e-05  6.0639177165820961e-05  1.7155813809710706e-04  5.0017915277925757e-04  1.5916767300546747e-03  5.4462418725484754e-03  1.9574338139533028e-02  7.4257287875351560e-02  2.7742786944027770e-01  9.7207148737283922e-01  3.1695290572386234e+00  8.1145177087702081e+00  1.7765316438481094e+01  3.4012449364934376e+01  5.5307136437710049e+01  7.4310529806030331e+01  1.5224764486026783e+04  1.0668530883057610e+04  7.5119637813944983e+03  7.3106853622339477e+03  6.1150568943213475e+03  3.0935726746829273e+03  1.6515277437636080e+03  8.2648582596532765e+02  1.2438216790479025e+01  7.7632308537149156e-02  2.0489762081431296e-03  1.1038641365448215e-01  2.6461755582386866e+02  2.6021036898823413e+03  1.1271213180075494e+04  2.2836191252511770e+04  1.7536473294991647e-01  3.9158595832820706e-02  3.4715530227597421e-02  4.3697383656092145e-02  8.4947215504993460e-05  8.7237405880069861e-05  5.5671442591736185e-05  2.8754657791746988e-05  3.3911418870129732e-06  9.5785779930608096e-04  8.3637883871100314e-04  1.8951265989747458e-04  1.0711426698068240e+05  2.6978042652141630e-08  3.7084047768277946e+04  1.5362008281641933e-05  1.6895381982479202e-01  1.9349772797163867e+04  3.3592938209312204e+04  1.5836676016770195e-06  1.2159023297025043e-01  5.7427195845297476e+01  1.6774493847529324e+04  5.8211771920657736e+02  5.0379609459745671e+00  8.3495261680142474e+04  3.9122599928036936e+04  1.7387540862333695e-06  3.0973898556275803e-04  7.4809098851559325e-04  4.0282792953696044e+04  1.8229185378010305e-04  2.2406930691937694e+04  7.4929512156281442e-06  3.6442572258799515e+02  3.5914714300447876e+01  4.8662301385582555e-04  3.3981503707319644e+02  5.2158004319821132e-06  5.9288134680636071e-07  5.3467449074563490e+02  1.1648376932728651e-03  8.1650730934840203e+03  4.3994620793035316e-01  8.4910367417239650e+03  1.0293328902729123e+05  5.2736043475716477e+04  2.3864962118423166e+04  3.0006882215450293e-03  5.9887781783484684e+02  4.4090105779165223e-02  3.7403266019454245e-01  5.2365310852442351e+00  3.0408425613339899e+04  3.7959457093614474e+04  8.8392195334956636e-04  6.4244695324047090e+04  3.0171203794948074e+00  3.9275175406805165e+03  3.7181492346656013e-02  5.3960783889363829e+03  1.3769903998873220e-01  1.1422419525692470e-02  3.0239211186380963e-04  3.7076983111711110e+04  2.8312529860966744e-04  8.4897393251584356e-05  1.2649574362060153e+04  4.7777820718204527e-03  6.8734227872153569e+04  8.3677090880533363e-06  2.6827057659239545e+04  1.2520045659939255e-05  2.3249367010062067e-09  2.1259258477690975e+04  1.3086494734190204e+01  9.9406754878113858e+01  2.3712204998010462e-05  8.0772617797330613e+03  3.8393765849133824e+03  1.5407697352654798e-05  1.1638788828120097e+05  4.0145337539130931e+04  1.5045058761334101e+03  1.0308612417579048e+04  8.8323906285605951e-04  2.7262975630051687e+03  3.3035899884875758e-07  2.4747624554335504e-05  3.8714304977404475e+02  1.8122824752699820e-01  3.1050941413060914e+03  2.8190107379821754e+00  4.6365799636628465e-06  2.1093539628651947e-07  8.0704908907959172e-01  1.6910798068769616e+01  4.2419569270289452e+04  6.4300737832561636e+03  3.7105277711711053e+04  2.8275370166532946e+02  1.1024623219177942e-02  1.3414000128141351e-02  3.7049339035975126e-02  1.8115784682534970e+04  1.8822223300545515e+03  1.1681012024869660e-05  3.2270650640726845e-03  2.1446603281762364e-04  2.0116415305837960e+00  1.0628565624926885e+04  1.8426145591652557e+03  1.3831499267673415e+01  1.6584591198896898e+04  1.0147788114384966e+04  1.2652468513317313e-05  3.7987597582446935e+04  1.9042334817707958e-03  8.8108622525111612e+04  9.5595801342196203e-04  1.8962102520684075e+04  9.9710738868104163e+03  3.2177411631529880e-04  3.2007034113588331e-06  4.6556841239620197e-03  1.9861726699248957e+04  3.2080399425108722e-05  4.3117763385128957e+04  1.5794927067430292e+01  3.5662775553473504e+04  4.6098086559741389e-08  3.5861740984053696e+01  5.9503003907514649e+03  1.4954937361511044e-05  7.9874410171341509e+01  8.0394432393753203e+04  1.7888119678775884e+03  8.9087812017928002e+01  1.5375632581079933e-02  3.6546967399099894e-01  2.6314220012739065e-01  2.4799148108732098e+01  9.1213757936834238e-03  1.3998813189121172e+03  5.7116659240577763e-05  1.6829098624747965e+03  2.7619589501309347e+04  8.4905765771027902e-02  1.5572318734359897e+04  3.5790502640157997e+03  1.0410904882991815e+05  3.2044470885683600e+03  1.8444511808076729e-05  1.2792318335888231e+04  1.3405025785882921e+04  2.7146077817790359e-05  7.7028374303385277e+01  1.0379535131175964e+04  2.1323006655632539e+03  1.3015577532539146e+05  2.0461314918146425e-03  1.1190719625343848e-02  2.0357245908294228e+00  5.2059958474669443e+00  4.0058364178297834e-02  1.7559322700300883e+04  7.2572343835848416e-02  3.2315655482183158e-05  8.7500272167696647e-06  3.5639567905471564e-06  1.1535764425701147e-04  3.9702260741916631e+04  1.0601083196587544e-05  3.2165951645446732e-05  2.6580317675722443e+02  1.0198575692793488e-06  5.4744690187127262e+03  1.6578436427247652e+04  2.4480598386841090e-03  2.3352278472191513e-05  2.4636149923001907e+00  4.1145163752338172e+04  1.3088172502287128e+01  8.6693544537092603e+03  1.2114097134423656e-07  3.7284528843398336e-04  1.9533214373180176e+03  3.5535792009819983e+02  4.1698352031694005e+04  2.3096406338878325e+01  4.8173749041499286e+02  6.5673118027763667e+03  8.6652047094208362e-01  7.9897597265351884e+04  1.6786111632752246e-06  2.8081562721250413e-05  3.4623189028316801e+03  6.4896654124458133e-04  2.3877783897457755e-01  1.7403910286865614e+01  1.2567996252148939e-02  9.8363185620904647e-01  5.4472321971427496e+04  6.9049087363483724e-03  3.7971419218813911e+00  3.6464979279918422e+04  4.0696943355522236e-05  1.4992604833270056e+01  3.7013406628143057e+00  7.4998261961359698e-05  1.2799673037825796e+03  2.5030273721222811e+03  2.2537888691534028e-01  9.5849478836843764e+02  1.1442977473358461e+05  5.9114179587729770e+04  1.6665630367718455e+04  6.8624766472066847e+02  9.5158441338171456e-03  1.1389666782253645e-05  4.2002435003605431e+04  6.6303359927783440e-02  1.3108741464382806e-07  3.0284550213112444e+00  2.1923967223215684e+04  1.1548057735795370e+04  5.7813109323809536e-02  2.4716730377516571e-01  1.0831220092070284e-06  1.0884566311257944e-03  8.5259884252535985e-05  1.0325705747315342e+04  8.9843278724548829e+04  2.2145167318134573e-01  1.2627930896447167e-03  9.1668722458494258e+00  6.8153699576903068e+02  1.0764900317542846e+01  1.0062680073164004e-05  2.5996683087079593e-05  8.0466661103005691e+01  9.7974658526062626e+01  6.4229752553392354e+04  3.1953683954928005e-03  1.1249396089134889e+04  2.1864599081505965e-06  5.8675282457150846e+04  4.1012895557147006e-01  1.4707020472402139e-03  1.1423944782022834e+03  1.4348295217792071e+04  1.2503455430322075e-05  9.6459143974666567e+03  6.2714389106834249e+04  8.6161713916608551e+03  3.4950904789919790e+04  3.0644774877091231e+03  9.5421063098925864e+04  2.4274371606404767e+02  4.4934907027929724e-02  2.2913833644593793e+04  1.8195859205499959e-05  1.5808926987549114e+04  6.5055871168275643e-04  3.6669578753706668e-03  9.3285055254216911e+02  4.2551446168074803e-05  1.0911211584944525e+04  9.9335290494751548e-03  3.3523063762900148e-07  3.5071325708080765e-04  8.7961947589430622e-05  8.7703126546532645e-02  6.2267415857567321e+03  2.4380226902465896e+04  3.0265405380084433e-05  2.8335751040428587e+01  6.1042397330376771e+03  1.5567358143885434e-04  1.4848727386579601e+04  2.9248592421995393e-05  9.5587222334762719e+03  1.9939333957985235e-03  6.0831341539643236e+03  1.6006554182955220e-03  3.7770731810391909e+00  2.0134864789315682e+01  1.0600009337761666e-02  2.9476174698480912e+02  1.4550554046286274e+04  4.4306571613226914e-01  3.0638866425761480e-05  3.5337804378249489e+03  2.0507536708474006e-04  2.6436404588817772e+03  1.3644345363933428e+03  1.8235733516079403e+01  2.8770862087182003e-05  5.6677632838304137e-01  8.3197556173260073e+03  5.6945932591983487e-04  7.4402662026736662e+03  2.4680574003979651e+04  1.5681845641036840e-04  8.1876004279965192e-02  8.0782593145267179e-01  6.9269367021428116e+04  2.1328737904647843e-02  2.7131715074529176e-06  1.8108883554706311e-05  9.6856848812602766e+04  3.0408058495810916e+01  1.8471343750582662e+04  4.4783954628526806e-04  1.5397079762358795e+04  6.7290142567943594e+00  5.3302496825401295e-09  1.1116608040983590e-01  7.8168265479341808e+03  2.4894557346878646e-03  1.0939330675667040e+05  7.2956129302157889e+04  5.0748746857071652e+00  9.1193327647416215e-03  1.0409601483846799e-05  2.2401587343001526e-04  2.3102848540310339e-01  3.6576984011768554e+03  2.5371549374384230e+00  4.6836993427041932e+02  6.3784943659106449e-08  5.3612043940914782e+03  2.7576974957673839e+00  2.8500644690145970e+02  6.3585056564632214e+04  4.3611001013918042e+02  1.1928600920811155e+02  1.5000758333357981e-04  7.6762459987773413e-01  8.9250350055279769e-03  3.6238190655762987e+03  1.1794077740775963e+04  2.0662423303996705e-03  4.5640903976461086e+04  3.0075486431654645e-06  3.8761071256587216e-05  2.8149345650188588e+04  1.9755924663977544e-05  1.2375812044789366e+02  2.0130810015263800e-03  3.6347569308420917e-07  1.5985069829391845e-05  2.4567312334468788e-01  9.6148616958910461e+03  5.3629194988794673e-05  2.4956656411042545e+03  7.6204563655641629e-05  6.3285480127907412e-02  5.4425860770991176e+02  1.3624205725936249e-04  8.4204330480875589e-01  2.6960819906924294e+00  1.3315751012894771e+02  6.2947723883306913e+04  1.6918144346659493e-03  1.7167967395341245e-02  4.9800198539750207e+04  3.5177945965846360e+04  1.2407109462925636e+00  9.1456616807561877e+03  6.0829110670929258e+03  4.3856618192104833e+01  1.3524647783737839e+04  8.0382835416515700e-07  1.7576396836627755e-04  3.2837559125105356e+04  1.8404871547086721e+04  8.8387217242579048e-05  4.6435878028334992e+04  1.5919419672022783e-01  7.8503122558945533e+03  1.5878037888291750e-02  1.5679240661167025e+03  2.6429874535382904e+04  2.9983586577884375e-02  4.9900469090877735e+01  1.1572894024568237e-03  5.2574066500535244e-01  5.1486195938168023e-03  4.3044791729514300e-03  4.3365457980488173e+01  2.3373699989176718e-03  8.2611158701799013e+01  3.1787795761466366e+01  1.5033532794760018e+00  7.0741007029032266e+02  8.6028598032882257e+00  4.9339013159256256e+03  2.2823369786273068e-01  2.0495394518654230e+01  1.2435016805694049e+04  4.3721059382375325e-02  6.7374124014368807e-08  2.8602459040709143e-05  5.1937446480178449e+04  4.3993055674174946e+04  2.6729242159155907e+04  5.4853821322721698e-05  2.5980732948699315e+04  9.7022970970405233e-09  4.0053829276241871e+04  4.8814515125286831e+04  6.1517450427666779e+02  2.6497065983324545e+04  3.4393569068474873e-04  4.6233200969395788e+04  3.7800909894707912e-03  3.0622495690368019e+03  1.0935685671812565e+00  6.6219494143146405e-06  2.1820713769538182e+02  2.8267024148255771e+01  2.5133691789580798e-01  1.0767394208923429e+00  2.0114429190225812e+04  4.2524507960237035e-06  5.3826678472757783e+02  5.3223524888376547e-02  1.3778054480615827e-06  1.3203705069754899e+03  4.1047017384215651e+03  1.2029258920084834e+04  4.8558051386246116e+03  5.0168479494344005e+01  8.1640132869272904e+01  6.1624756942539378e+01  3.1457380008342536e-03  2.6956151983028422e-03  2.1161827747536032e-03  3.6053261772077011e-01  2.1164910358896266e-01  5.0475892949487811e-01  8.4530107137370487e+03  8.4988399500346859e+03  1.6722425542499030e+04  1.1582605081477666e+04  1.4301531980037520e+04  1.2552578972321688e+04  1.7930006338696432e+04  2.3949978165214838e+04  2.1542658717557810e+04  1.5632735076058369e+04  1.7864178861818466e+04  1.0204154635859533e+00  5.4381864682176648e+01  3.1206393805260223e+01  6.6755036625605646e+00  5.5696855635193458e+01  2.4626974040868830e+00  6.4413046063215870e+02  9.3779479885248406e+01  7.0894149314738411e+02  2.4938590544367216e+02  8.0204263880842961e+02  3.1644313436126253e-01  1.7624745124276375e-02  3.6461680837131807e+00  2.2478222380586370e+00  5.2368052797924877e-02  4.8680180237944065e-01  2.4793009279847979e-02  1.5342905396498385e-03  1.6372262019344278e-03  9.3492815137395386e-04  5.5432525839512121e-04  1.1388987145700549e-02  6.4543830373481532e-05  7.7007173824247371e-05  1.5463075374924541e-05  1.6146407799761825e-05  3.2621839844084236e-05  2.9132272588209141e-05  2.1419011196571186e-05  7.2403842111443570e-06  2.1916299665436344e-05  1.3337737357814260e-05  1.8061203312600258e-05  2.4885108924648879e-05  6.2016235323558021e+01  5.7247528753158711e+01  6.2416144699586930e+01  7.3527250957043123e+01  1.0311315447055631e+02  7.1283096143469635e+01  8.7088054288411655e+01  1.2965971552066370e+02  1.1855614780248220e+02  1.0827293441065228e+02  1.8172777830532965e+02  1.3302119452292737e+02  1.3970634550532048e+02  3.4014015277001454e+02  2.2618610496330928e+02  1.6882538074595146e+02  3.7634150436480513e+02  2.4402831774895299e+02  2.2351846170643034e+02  5.0869876837045956e+02  2.8076400282167805e+02  2.7755268055524988e+02  5.2472779820252060e+02  5.8414887580766913e+02  3.4529327693831937e+02  5.4534218834397609e+02  5.1385128012458449e+02  4.4470627868434747e+02  7.7670544340453887e+02  5.7739396336183097e+02  5.4921424249297627e+02  8.6254460596435263e+02  7.7783126745928598e+02  7.0802938003486088e+02  1.2191568080082341e+03  8.7150584260002074e+02  8.8699101357841766e+02  1.4011277212835735e+03  1.4041580550938836e+03  1.1153950592491001e+03  1.5500884773849075e+03  1.6088496514518690e+03  1.4164374347824328e+03  3.4895133448528877e+03  1.8837965891460053e+03  2.2130382751517031e+03  1.8381983141860392e+03  3.4193931477603282e+03  2.4807885079528505e+03  2.3153733507655320e+03  6.9636601777433671e+03  4.2389093732111342e+03  5.1565506714223784e+03  3.0116972056567624e+03  4.9063081972847385e+03  5.0662017404726166e+03  4.8617262006082983e+03  1.2204852633822811e+04  6.9383485109354206e+03  8.7175957983847966e+03  1.1713330321799511e+04  1.0100280037812789e+04  7.4082807411124195e+03  1.0285393507602836e+04  9.6703607737575403e+03  1.0447441641719983e+04  3.9779352076772552e+03  8.1631024269743302e+03  6.5682883365214184e+03  2.2109769461417104e+03  6.1348621927471740e+03  5.3670944377493188e+03  3.8112042146711774e+03  1.1597435139483359e+03  3.0875144731766372e+03  2.1799395151836320e+03  6.6886297276094865e+02  1.6428174622504966e+03  1.7153006788212181e+03  3.3783333271054465e+02  1.2746149851388745e+03  7.4156126090082955e+02  1.8013176508669497e+02  5.1819852285841807e+02  5.3719380758668706e+02  7.6359938853913150e+01  3.7813846999122842e+02  2.0867380557156497e+02  2.6665340046314103e+01  1.6044262127374424e+02  1.3997522670681926e+02  6.9345191220017782e+01  8.6484648841208216e+00  3.4070657724110866e+01  3.7437844279048583e+01  2.7230734446507161e+00  1.9750486116462120e+01  8.6374274870613181e+00  1.2655197120246129e+00  6.4331108775153600e+00  5.5385560897953345e+00  6.9272983373384744e-01  5.0846447145891789e+00  3.6768316116387960e+00  4.4550052656308231e-01  2.7273226632074512e+00  1.3416059041378376e+00  3.9319872862203159e-01  1.5496512954597963e+00  1.1195189193852439e+00  3.4661589637055218e-01  1.4388506006811437e+00  8.3838592641536747e-01  1.3224738597589354e+00  9.2112841588603767e-01  5.9392884590409700e-01  3.3539314076515198e-01  1.4280406964332348e+00  8.7353513416900563e-01  7.0092494246531367e-01  3.8352114009956673e-01  9.3366142459062063e-01  7.8634594031249860e-01  3.4721802819077785e-01  7.7444570180434602e-01  5.8983204808923695e-01  3.0500356088847047e-01  4.3132651037737152e-01  4.9489057895733957e-01  2.4915102629974573e-01  3.5984858445884871e-01  3.0527387714781823e-01  1.9901588802568979e-01  2.6059725849145055e-01  2.2410650964911885e-01  1.5352473944148146e-01  1.5781207889963542e-01  1.4780616173885577e-01  1.8868389575145511e-01  1.1706597657560083e-01  1.0145494945179585e-01  1.2654875754901934e-01  8.8638291116561643e-02  8.6333730424261970e-02  8.0155492144914381e-02  6.6029462664673730e-02  4.7405649279564005e-02  6.7706184519638862e-02  5.3991085496245816e-02  4.8609301261282087e-02  4.6662141510888253e-02  3.5336492124405698e-02  2.9344108204390030e-02  2.8039516634231151e-02  3.8629981747792960e-02  2.5737266252485229e-02  2.4127175655552783e-02  2.1661373011280193e-02  1.8531774202122514e-02  1.8376264773651587e-02  1.6212550964432249e-02  1.3149433733882755e-02  8.3212107424646964e-03  1.3403200144997346e-02  1.0829100116604084e-02  9.3179185368342729e-03  7.4299788578860585e-03  9.2361608060923354e-03  6.4934742639447046e-03  3.5666740869109361e-03  6.0104498116903722e-03  4.4588315959471162e-03  4.4950670287323326e-03  3.7961999857457802e-03  3.1261706413523217e-03  2.6278678311367752e-03  4.0996341632961489e-04  1.2790574837712666e-03  7.0272284692561842e-04  6.9983431519366379e-05  3.4287154364091090e-04  2.2226750897512105e-05  1.4818480823624366e-04  5.5498140451432341e-05  1.8047919956246892e-04  3.8464400014972477e-05  2.5108381179198151e-05  3.0225771187306447e-05  1.0054902313699136e-04  2.9694495506997125e-05  5.2020502781313653e-05  2.8920489712865103e-04  1.0693331095156887e-04  8.3304104070611762e-05  8.9742518362921598e-04  1.8340264213914678e-04  4.1851362894473979e-04  2.9143433784065103e-03  1.0492713266798224e-03  7.4884606600046655e-04  1.0142049315613466e-02  1.9951400325026484e-03  4.4888130554715357e-03  3.9357741713771759e-02  9.2047122925366619e-03  2.3223010935604436e-02  8.3008525311922300e-03  1.4479238262997052e-01  4.5243770324656291e-02  7.4093630301846070e-02  5.2241378282713546e-01  1.6643968469704917e-01  3.1249249941117452e-01  1.3702578504908194e-01  1.8227368128352535e+00  6.0908630541103714e-01  5.6389222833367225e-01  1.2901582892101826e+00  5.2319552475762512e+00  3.3353517129881607e+00  2.1446277339374809e+00  1.2201781849415971e+01  6.8246264751063084e+00  5.2825306093372886e+00  2.4792581925530012e+01  9.8895062962576468e+00  1.3203084223872377e+01  4.5278059137194148e+01  1.2750815791023603e+01  2.3396753129657405e+01  1.7364715094460539e+01  6.5675936531660497e+01  3.1000342605167940e+01  4.4985413982181790e+01  5.3119331230229562e+01  5.2342817188056898e+01  1.2985271142376145e+04  1.229082877273891