<?xml version="1.0"?>
<VTKFile type="UnstructuredGrid"  version="0.1"  >
<UnstructuredGrid>
<Piece  NumberOfPoints="7863" NumberOfCells="15264">
<Points>
<DataArray  type="Float64"  NumberOfComponents="3"  format="ascii">0 0 0  0 1 0  1 1 0  1 0 0  0.25 0.15 0  0.25 0.4 0  0.5 0.4 0  0.5 0.15 0  0.6 0.6 0  0.6 0.85 0  0.75 0.85 0  0.75 0.6 0  0 0.9499999999997918 0  0 0.8999999999995836 0  0 0.8499999999996529 0  0 0.7999999999999998 0  0 0.7500000000003466 0  0 0.7000000000006934 0  0 0.6500000000010401 0  0 0.6000000000013869 0  0 0.5500000000017335 0  0 0.5000000000020587 0  0 0.4500000000018723 0  0 0.4000000000016644 0  0 0.3500000000014564 0  0 0.3000000000012483 0  0 0.2500000000010403 0  0 0.2000000000008322 0  0 0.1500000000006241 0  0 0.100000000000416 0  0 0.05000000000020799 0  0.04999999999989965 0 0  0.09999999999981467 0 0  0.1499999999997036 0 0  0.1999999999995579 0 0  0.2499999999994121 0 0  0.2999999999992664 0 0  0.3499999999991206 0 0  0.3999999999989749 0 0  0.4499999999988292 0 0  0.4999999999986943 0 0  0.5499999999988151 0 0  0.5999999999989468 0 0  0.6499999999990784 0 0  0.69999999999921 0 0  0.7499999999993417 0 0  0.7999999999994734 0 0  0.8499999999996051 0 0  0.8999999999997368 0 0  0.9499999999998684 0 0  1 0.04999999999989965 0  1 0.09999999999981467 0  1 0.1499999999997036 0  1 0.1999999999995579 0  1 0.2499999999994121 0  1 0.2999999999992664 0  1 0.3499999999991206 0  1 0.3999999999989749 0  1 0.4499999999988292 0  1 0.4999999999986943 0  1 0.5499999999988151 0  1 0.5999999999989468 0  1 0.6499999999990784 0  1 0.69999999999921 0  1 0.7499999999993417 0  1 0.7999999999994734 0  1 0.8499999999996051 0  1 0.8999999999997368 0  1 0.9499999999998684 0  0.9499999999997918 1 0  0.8999999999995836 1 0  0.8499999999996529 1 0  0.7999999999999998 1 0  0.7500000000003466 1 0  0.7000000000006934 1 0  0.6500000000010401 1 0  0.6000000000013869 1 0  0.5500000000017335 1 0  0.5000000000020587 1 0  0.4500000000018723 1 0  0.4000000000016644 1 0  0.3500000000014564 1 0  0.3000000000012483 1 0  0.2500000000010403 1 0  0.2000000000008322 1 0  0.1500000000006241 1 0  0.100000000000416 1 0  0.05000000000020799 1 0  0.25 0.3500000000002234 0  0.25 0.3000000000004466 0  0.25 0.2500000000006611 0  0.25 0.2000000000003316 0  0.2999999999999999 0.15 0  0.3499999999999999 0.15 0  0.3999999999999999 0.15 0  0.45 0.15 0  0.5 0.2000000000000022 0  0.5 0.2500000000000046 0  0.5 0.3000000000000067 0  0.5 0.3500000000000087 0  0.4500000000000001 0.4 0  0.4000000000000001 0.4 0  0.3500000000000001 0.4 0  0.3 0.4 0  0.6 0.6499999999999999 0  0.6 0.6999999999999998 0  0.6 0.7499999999999999 0  0.6 0.7999999999999999 0  0.75 0.8 0  0.75 0.7500000000000001 0  0.75 0.7000000000000001 0  0.75 0.65 0  0.7000000000000145 0.6 0  0.649999999999899 0.6 0  0.6499999999996818 0.85 0  0.6999999999997106 0.85 0  0.2987828851411449 0.699325350601735 0  0.7568105424598444 0.2773422776226307 0  0.1795454545455548 0.565909090909074 0  0.8224999999997471 0.4374999999996759 0  0.4210672245123 0.8298112703689309 0  0.1704342645355456 0.817589228320629 0  0.4288291996927651 0.5807253322680467 0  0.6700168933784714 0.4454283174013861 0  0.8465566460363076 0.1536642418117631 0  0.6487495650826139 0.1583009537413474 0  0.1302432088118011 0.6870436331969506 0  0.4678571428571685 0.6999999999999645 0  0.3001247914658854 0.8712026118102825 0  0.3037919960474855 0.5294342885375104 0  0.130623183832229 0.4401092867706953 0  0.8659552483879646 0.3224251422433174 0  0.8736312978505528 0.5612537349962974 0  0.6245633418427496 0.3030766659003465 0  0.1250000000000379 0.2750000000005539 0  0.8734358317010626 0.8762010003539712 0  0.1254835060363831 0.1258252413885224 0  0.8749999999999343 0.7250000000000005 0  0.5181687217833718 0.5314910246240141 0  0.7500000000000194 0.1068693693694355 0  0.5185460717145034 0.8908201301560481 0  0.1043949820060815 0.9055901675413394 0  0.7472304391142466 0.4937115169957552 0  0.7437057827977005 0.3796800519519853 0  0.5837666239123878 0.0953941305957148 0  0.902362942345899 0.2218145421277327 0  0.1069592086353165 0.6081316226431639 0  0.5943281866118556 0.2221187317759835 0  0.09231256724200733 0.7788120293054371 0  0.2599118360316645 0.613680451156976 0  0.386610176029564 0.6631887582313238 0  0.2537946126497011 0.7917216350769677 0  0.9088286731471231 0.4704266021303271 0  0.5063995803351647 0.6198623457584774 0  0.3860058725664629 0.914148551469585 0  0.5069733898137954 0.7690591741519245 0  0.2189083152479363 0.9142871916137685 0  0.09240943628007152 0.353587386157095 0  0.3923666487137664 0.4973261685045393 0  0.9117702211709445 0.6463336145912728 0  0.2237945603996098 0.4867857348645567 0  0.9161970975027582 0.08252283236527229 0  0.3461519581374356 0.7752338663700789 0  0.6110313179874225 0.5139303735626758 0  0.08254453868152074 0.5295949336450964 0  0.5783651695896583 0.387014424669225 0  0.7680988053275425 0.1909346846843861 0  0.9202288100287571 0.8014462386955867 0  0.08317821648800833 0.2045345244679453 0  0.6743674448775834 0.2381773292297286 0  0.8014729691714902 0.9151682085422 0  0.1982142857142988 0.08392857142857235 0  0.9156947390731955 0.3830592165702195 0  0.2099925163896727 0.7117346125224077 0  0.8288873197852951 0.7991354001759553 0  0.1710420590992359 0.2009730661079498 0  0.8302601404977216 0.6362505489697606 0  0.8278972189280196 0.2432708264037497 0  0.1724373447570453 0.3750000000001119 0  0.8263815004216721 0.07675344797416643 0  0.6734552612001731 0.07775097080953899 0  0.6322765317037635 0.9278922409848336 0  0.3328795603068665 0.07550965653377333 0  0.4218141641894588 0.07552083333321569 0  0.7202413378918148 0.9252992098071467 0  0.3398398570642138 0.5956195883200471 0  0.1876245270259333 0.6393374142670434 0  0.5053993339633923 0.07647011170888637 0  0.0718750000000897 0.07187499999995482 0  0.9281249999999797 0.9281249999999464 0  0.4615331046556409 0.4767930683020147 0  0.8132809042322462 0.3596726603183649 0  0.8134265276406807 0.5108303348297808 0  0.4201515737436131 0.7514965833054841 0  0.9273040324515954 0.1585949917491647 0  0.06708721766401626 0.6750163115727243 0  0.56422475897686 0.4552131930394481 0  0.6791346043894576 0.5327473050102175 0  0.697255269395278 0.3214473484424947 0  0.2802981881263434 0.9339285714286927 0  0.5339285714285894 0.6802981881261965 0  0.1655838508805648 0.7568246324058057 0  0.07055580426794442 0.4304123740962421 0  0.3226088857382223 0.4646105576694787 0  0.5680970217443936 0.1590416415060358 0  0.4428489297902234 0.9319457679008186 0  0.9477157065683794 0.5858496809090185 0  0.9359768099749814 0.2904579204473128 0  0.1742846135096847 0.3003953810640202 0  0.06918270446438632 0.8409433163409716 0  0.8252358436657874 0.6976195482341206 0  0.5635633234700967 0.284788731469481 0  0.5521945854607904 0.9257613588772547 0  0.3635427058143873 0.8407659882482055 0  0.4499814782289108 0.6338364401188512 0  0.2390953482890149 0.8431241519968201 0  0.1517067680066363 0.9343448395931244 0  0.06539387153795677 0.3019693576901929 0  0.2575632692678596 0.06394502601111231 0  0.6555411638130636 0.3716910457745546 0  0.1608726846099766 0.5049389228359271 0  0.934949728583427 0.6997486429173009 0  0.2433845767894122 0.5499237975678901 0  0.939237790491481 0.8554484180187727 0  0.0630223880597205 0.1401119402987738 0  0.1348958333334102 0.06197916666672756 0  0.865104166666832 0.9380208333335958 0  0.7604230740984012 0.4373799400890658 0  0.5372647219903939 0.8402823937523813 0  0.1923510154511563 0.1420055354945893 0  0.8075445196362099 0.857996515152053 0  0.1885591087578553 0.4337380820533954 0  0.7105225609509752 0.1526657632181078 0  0.3666090240151971 0.7062960373879834 0  0.7966936723524515 0.3163062291281787 0  0.5508714508660905 0.570011516337836 0  0.4721626247170084 0.554486293857005 0  0.8002707048946301 0.5730607189697422 0  0.06641773621617075 0.9351618371252797 0  0.3665814154358935 0.5517819541861106 0  0.05442204514635005 0.7231523959702606 0  0.6284828997490257 0.05004553457671893 0  0.9398712002144101 0.5109326544100544 0  0.5433787542275291 0.7375061851781469 0  0.3375061851783711 0.9433787542277096 0  0.7215297270911555 0.05410988042852424 0  0.4797837765982246 0.8425479205787176 0  0.04271365523339227 0.5671101206092209 0  0.8714625424823598 0.3953934577117953 0  0.1490428061304692 0.875151828016147 0  0.2781199925553454 0.4510243744904079 0  0.5565677762207972 0.3450127136714147 0  0.1940357533673813 0.2535689772727561 0  0.3766403934953488 0.04740981637292114 0  0.2545866346220484 0.6725938042819365 0  0.3074605043080991 0.8017072464925095 0  0.8056636005117194 0.7469721857454302 0  0.1269450100636947 0.56224828215199 0  0.05350185589295817 0.249017632611271 0  0.674777132742694 0.8963085370316726 0  0.5117683592953793 0.4496907486941994 0  0.1169833904185793 0.8254360225452316 0  0.04504201214567945 0.4768561077888308 0  0.3055599085954928 0.6382433889748717 0  0.9450727948239286 0.7538737512009489 0  0.4306417842714623 0.8796919592677241 0  0.7923856483923215 0.141724914569402 0  0.8728297214303689 0.04978308383419468 0  0.9486377781753648 0.4273242585722439 0  0.437541018947418 0.5220595462426839 0  0.9484027151197005 0.346539625994936 0  0.7281038251562784 0.2284601524070051 0  0.8668606734410613 0.6709737204112667 0  0.690214514677936 0.4804244848868111 0  0.8493847380621981 0.4812225068388546 0  0.1333737946122648 0.326539344567937 0  0.7219350493285639 0.5495541898924469 0  0.6750000000008667 0.9530034763360794 0  0.6303201059992649 0.106643697324949 0  0.7119144016103087 0.4146430422909549 0  0.3761225040737161 0.1044665480092788 0  0.1419061815543131 0.6445935072656427 0  0.5010710576848406 0.9417334264593 0  0.8586198319213173 0.207759071572462 0  0.9472598698250957 0.05274013017491718 0  0.2988553637576897 0.7535345997678686 0  0.7805552894816058 0.05315972730291021 0  0.4120655818059855 0.7045889958912197 0  0.7495113277877659 0.3294098108501303 0  0.6308381164613092 0.2525569635330791 0  0.05405789668501901 0.6246
[...]
<PointData  Scalars="f_602"> 
<DataArray  type="Float64"  Name="f_602"  format="ascii">-4.2152115130720169e+00  1.5704613226568238e-03  1.8204413915207990e-14  -3.1188609144401111e-13  5.5473747842512668e-02  -9.4497654808629701e+00  -1.6289099419039315e-10  5.3077052900824660e-07  6.0316554083077739e-12  1.8371319558623310e-10  2.8645811744377496e-12  -5.3005643241333958e-17  1.1435425211461907e-03  -3.5426439553221302e-04  -1.2739941627605429e-02  -5.6975559247656474e-02  7.1439334335634975e-03  -5.8944057429631642e-03  1.2034850262744007e-02  9.4846000229692456e-03  -4.4175928892862114e-02  -2.7816139452823015e-02  -1.9297463658851910e-01  -2.5829835122648653e-01  -2.4002400550136849e-01  -3.2764400210502359e-01  -5.5574043165162068e-01  -5.4481666682155860e-01  -3.8504150796302655e-01  -1.0649962219239399e+00  -8.2256073563758980e-01  -8.5770838688768225e-01  -1.1210418820968775e-01  -2.0825436398314887e-02  -2.0788412051184037e-03  -2.2011196183046989e-04  -6.1375713729661379e-05  -1.0101292189444144e-05  -2.4656432541277442e-06  -3.2101881657980299e-07  -7.6584720141836564e-08  -8.3906858384789455e-10  -3.6412938062623625e-10  -1.1141069388247287e-11  2.0759804781982495e-12  1.0648044213807713e-13  -2.0636358450932844e-13  1.3175087548030362e-13  -2.7696476494862989e-13  -1.1339013192281542e-13  -1.1488673450905233e-12  -1.0860025426197351e-12  -1.0298474677389991e-12  -8.0226919172022137e-13  -5.4732042662980135e-13  -3.7517361014167503e-13  -2.3837197319476591e-13  -1.5621522240080751e-13  -1.0015475328041250e-13  -6.1628203767424273e-14  -4.1330284833814048e-14  -2.5472393848785660e-14  -1.6540157315826744e-14  -1.0500064649877493e-14  -6.3006272248320023e-15  -3.8906668637185786e-15  -1.9616568002312666e-15  -8.1051330421254970e-16  6.9945030455431652e-17  3.7330468410816338e-14  1.0114654324390085e-14  9.2159610293193651e-15  -1.4837543593738587e-14  -2.8730139422803225e-14  -4.1848367565901983e-14  -3.2848837575131069e-13  -1.9586677410060326e-12  -5.6534346502862715e-12  -3.0633016094442654e-12  -1.6567918287456402e-11  7.8822673635145946e-11  -2.4898073004642216e-08  8.5124808673046922e-08  1.4982760744233919e-06  1.2356147168423012e-05  8.4894765861038491e-05  3.3603972605797275e-04  1.6885418588994477e-03  9.4078264448041016e-01  -8.2235787086927736e-01  -3.5437040666819830e-01  -6.6502680824302315e-02  2.0006528326619005e-04  -3.4557986545789154e-05  -4.1122353277836332e-09  -1.1438417437001800e-06  -1.8907307087393057e-12  -9.5616296135910624e-17  1.4958681564536398e-18  5.2440855510572392e-14  -1.3009659809424257e-05  7.0719753246145547e-04  -1.6805155677695116e-01  -3.6677925799803437e+00  8.4096694222397148e-14  1.5731976862437217e-13  -1.1885731644871745e-12  -5.8447764998571173e-11  2.5950789517779777e-13  1.6982745041012729e-14  5.6828532026507439e-16  -2.7779949278708348e-17  -1.4019254208195198e-19  -9.0061652989519834e-18  7.7703156561224714e-11  1.9993456414121416e-11  2.4132345867706899e+05  -3.9603520666962408e-17  5.2562353940492030e+03  -5.7488043052597220e-21  -8.4671100782870266e-06  4.1194353394255668e+03  1.4574736695708458e+02  1.1364766057512189e-16  2.5941289098753744e-14  2.0466343344494453e-08  1.5198872190872420e+01  1.2982573798545262e-03  2.2924114270744912e-02  1.3200078476127746e+05  2.9139564721144190e+04  -2.1870736942163358e-20  2.2736590060373679e-18  2.8932273657035873e-17  8.1479187052157499e+01  2.2140839145942181e-14  2.0898391049343282e+01  -3.3785823854959186e-18  -9.1283421042017419e-04  5.8426599691114222e-09  1.8459388441529965e-10  -7.5558965688430790e-02  -7.0919005165035777e-18  -1.8567565117436744e-21  4.7956382253177622e-06  5.0539178878447334e-17  1.7302791668362150e+02  -7.5794788916953000e-15  5.3631337578901343e+02  3.2873810693354841e+05  1.0388398486609098e+04  6.5491975609116071e+03  -6.2804636417847114e-17  -5.6700642987595837e-03  8.3994771515370680e-07  1.9126704549675401e-07  3.8545681913893406e-03  4.1553340531045742e+03  -2.4776340660356712e+02  5.9693530361298117e-17  8.5009549582397987e+04  4.1461517328499246e-11  1.5905131158723709e+01  5.1913080467695285e-15  4.9871295794769873e+02  -9.7178659862271469e-13  -5.6781990716609727e-15  2.6797760845048806e-16  3.0826062203976488e+02  -1.6735552826842749e-15  3.1135819708160009e-13  5.4986235338626754e-01  -1.0427141140377348e-16  6.1077932069669650e+03  4.9492434714095912e-15  4.4499208876365914e+00  -5.4957977579968880e-16  -3.2253548234836062e-18  7.0516091042145445e+02  2.0363355779869784e-10  -1.8723056761478344e-08  1.1267532531378590e-11  1.5948877235283456e-02  1.3944872734812598e-03  2.1174916606040389e-12  2.5910592009680331e+05  8.3594745754820465e+00  8.9486626961999898e-05  9.8142664478252541e+00  1.2911393525712290e-14  -1.1622202345454032e-01  -7.6314453540406030e-23  8.3262309468731931e-20  -3.8710600412926390e-03  -1.7342369098484341e-14  7.0016008584509748e+01  -5.1860077765287750e-10  -7.0717547926414754e-18  -5.1637730296268591e-19  4.1678640421233281e-04  2.3605476674391249e-07  3.8535547992833317e+03  8.5101411209525827e+02  -3.7337558064278778e+02  8.9629149395771300e-07  -4.0424639216849944e-09  3.5192528299341865e-15  -1.4248410420236153e-15  4.2142949952835167e+01  2.9127513290726128e+01  -2.1188794829211554e-15  -6.1047986914799565e-16  -6.3771127441418511e-11  1.6126037408647328e-05  6.4244119665969244e+00  -2.0911194037754659e+00  -1.7439992818146469e-03  1.0388623631482087e+03  2.4091424667352448e-02  8.4171580289260103e-19  5.1646566208160744e+04  2.6821052793970967e-16  3.7981564403078362e+05  1.6114303984681058e-15  1.1508410429260317e+02  8.6473922318508412e-01  4.2543642203296557e-14  -3.8763390174807693e-21  2.5403577362960101e-09  2.5036479411373440e+00  2.4294509812079826e-13  1.3057634963718328e+04  8.5847868613812489e-10  6.1463314999592312e+03  -1.8272544791365960e-19  -1.2958851749221889e-06  -1.6139923899951953e+00  -3.1134321356972651e-16  9.9728892852812608e-03  1.9003945997779600e+04  2.3555003516810032e+01  -8.8280147538607417e-08  4.7824252850946057e-15  4.9063944131016370e-09  2.5985434180231023e-06  -4.1967613212229832e-09  1.8972573983847923e-08  1.9305731905727328e+01  3.6686007079952055e-20  7.2622000675535006e+00  -8.4986744361259206e+00  -2.0970657799349710e-13  2.5109126371972788e+00  -2.0671402116472973e-04  1.1860147308785963e+05  1.2890135020692714e+01  1.7574629823736327e-14  6.9275220411872886e+02  3.6206240982372066e+02  1.8026399115574687e-11  1.5095096418715705e-07  1.1098125022875724e+03  5.6944125688860488e+01  5.7053929661272862e+05  4.0530319988936577e-16  -6.4152553470861299e-08  2.9902410246277560e-12  -1.0016769395018216e-10  2.3075976718130573e-14  -2.5692202144593711e+01  5.5909735944400050e-14  -2.4623387098613087e-15  1.5813129238963461e-18  -5.7522955679156142e-18  7.0619671184973388e-20  5.5975222306156502e+02  -6.7030238479095953e-17  -8.3478437670277058e-13  6.5192708672893173e-07  1.4733781449878167e-19  6.6864766185211798e-03  8.5144802521881680e+00  -3.6662207760698224e-10  1.5968833493827407e-16  -3.1068169122428483e-12  2.1042098058137872e+04  -9.1639775545280889e-10  4.8824941716440222e+01  2.3124222141889402e-21  -5.1794740233865294e-16  3.6348167530457872e+01  5.1728000282566917e-02  1.8454267831205158e+04  -5.3715102466490545e-06  -1.3543660603983562e-06  -3.1555245448090330e-01  -1.9221113096332983e-12  2.2313147791206458e+04  -1.7251159876093078e-21  8.0392238481956514e-14  1.1428262968649469e+02  5.3103294023604110e-10  3.7642641981336410e-13  -1.2126412315034453e-03  2.0035638361240896e-15  5.0059018282261774e-12  1.5127273582582384e+04  5.8301708075352483e-14  6.6718538161637851e-11  2.7517714500589495e+01  8.6206714638287094e-16  -1.6235515752036250e-07  1.7485561435511050e-05  1.0509010028184935e-18  -1.5858008720898748e-05  5.3309457593700264e-04  -5.0360448134377830e-14  3.2499509846079846e-05  5.4592014655547193e+05  1.5268430596540173e+04  3.9904828601253075e+02  1.1689408843044868e+00  4.8628707478941955e-17  -2.2614333129933880e-17  2.0610949399608483e+01  -4.6016325868555574e-09  -1.4987596704014802e-16  -3.8014041743756941e-10  -3.0814750378595576e+01  1.1429424281642747e-01  7.9939581877331880e-10  2.2975758189833838e-04  -4.3858386182838429e-17  -6.7266875984036361e-18  3.8368623644201233e-14  -5.0047035678764333e-02  1.1408546078972801e+05  2.0793983242135979e-07  3.0875086973265088e-16  -8.3013037047824872e-09  -1.1567406891968172e-02  9.1999478236505103e-02  -7.8180465007646649e-17  1.4983004855795262e-12  2.8364727709374981e-08  1.9499178635843841e-03  7.3606816500115121e+04  6.9402008482044182e-16  1.1388378395162425e+02  -4.6525623675087282e-22  4.3029493479492630e+03  -1.9236822082965192e-13  -9.3593814872452857e-18  9.2478938074949717e+00  4.4738325650316191e-01  -1.2530227459827848e-20  2.4328532776628426e+03  1.7499130954881856e+05  -2.4881313980614897e-02  -3.4199697010902788e+00  -2.9720726458380292e-01  1.4810533813077371e+05  7.6192805123444397e-07  2.2278114620207744e-14  1.0154093900123726e+02  4.7058142989331931e-13  4.3346973816094492e-01  8.7787991913628279e-16  9.5527788039451250e-16  -4.7625703773337941e-01  3.6519918175283044e-17  -9.6016789401531100e-01  -2.8386012780954554e-16  1.8597486459915577e-20  -2.0724035276043170e-11  -3.0974873477187379e-18  7.6816128536497206e-14  -1.5283037545484897e+00  3.0460292721798382e+03  4.0184496005560509e-18  -3.1884579382484455e-06  -3.5194854621868644e-03  1.3593775588409137e-13  3.2790834478443527e+00  -1.4612880347926105e-17  2.7394021118264792e+01  2.5954102362501099e-15  1.9437092923636234e+00  5.7699314257730308e-15  -1.0298135073537379e-10  -3.6729043709163182e-09  8.0832938043026720e-16  6.5785410157851233e-06  2.7810113917492806e+01  -6.5633141330321181e-14  -2.2551973871788586e-13  6.8205455881286468e+01  7.9775502961886765e-11  5.7877491345457673e-04  -7.4030783905902682e-05  1.4617776258618986e-09  -1.0365572902080953e-15  1.8943350430415379e-12  6.4018491243903616e-02  1.6293221679373657e-14  2.1027379246588165e-02  1.6083636024825282e+03  -2.4715585322473683e-19  -1.1167270705206373e-06  -3.3581514958527396e-12  4.0581649425877687e+04  -1.2861212635048215e-10  -1.5346088626447413e-18  5.4519749722354007e-12  1.3992100880369724e+05  2.4590316049090229e-09  3.5435654472877353e+01  9.6231310772594835e-15  3.4996268269180141e+03  -2.3093877860464162e-04  -1.8841111973361139e-20  -2.3542109133438002e-13  1.1498993563012733e+02  9.7779543006662758e-17  1.8062952139991414e+05  1.1962776979962162e+04  1.0107520041146428e-10  -5.8743324559514133e-15  -3.0354305734720701e-17  -4.4109785675077488e-12  3.9807280624972337e-13  -1.0546555169415016e-03  -3.9304843371812108e-11  1.1584867868755637e+00  -6.0872477570807678e-25  2.4967876006315965e+01  6.8878095657743616e-13  3.6746930469713682e-02  8.8000101900344453e+04  -4.2495544233989765e-06  4.9420403977987743e-08  3.3827712574012512e-17  4.1064923635673995e-13  -5.4343042087530369e-17  3.5842318108200438e+01  8.9028376313999832e-02  -4.3118082363013506e-09  5.5681624702893339e+02  -3.9380180774266284e-18  2.6403159133956076e-13  1.5258673917816258e+01  5.7248711013432511e-20  -2.4985159187135241e-07  -1.8973139568655697e-17  -1.6201061928513253e-21  -6.7904503763717759e-19  4.6327476814733432e-08  -1.5567119612304379e+00  1.8650453136564213e-14  4.6062892741157626e+01  9.2123378567809949e-11  -2.0908725847692329e-15  6.1685519131177524e-01  9.3398874812476298e-18  2.2034100260151546e-10  1.2010742432493486e-06  1.3088305040733594e-07  1.0595966120443468e+03  1.0415351543107327e-16  3.5558288451233537e-10  1.5658161169617786e+03  7.4230700094584193e+01  -1.1276299264998807e-11  1.7928019741082025e+02  5.6943636593494880e+01  -1.0784241100647374e-03  -1.2041350211550471e+01  1.3720407218148240e-17  1.5965763463520189e-15  1.1371503332360656e+02  5.3985721748751967e+03  -3.2066784967925667e-19  9.8349698264055751e+03  2.1157634242525329e-13  1.1052294914172419e+01  1.6430753841549060e-15  1.3714661389350969e+01  -4.7791450921526319e+01  5.7377888448788632e-15  3.0299052717061667e-02  -1.6864692462944593e-16  -7.3657512717635021e-05  2.6970052416500373e-16  4.2482900432399489e-16  -2.9611513568955331e-06  -4.1629092208595520e-11  -3.9568576577419922e-03  -4.1208439597319791e-05  3.8902734207278223e-12  1.0137931802577528e-02  8.6530526462943471e-06  2.4334860319214428e+02  -3.1135701910080369e-14  4.5122174429074033e-10  1.3730435145854688e+03  3.2050022269242383e-09  -1.0669678274221622e-18  1.3722696373580310e-19  1.2262795361272074e+04  1.8457271533747025e+04  2.3532471064831989e+04  1.9881128691797681e-14  1.1737456191171084e+01  -2.3494427457909101e-18  1.6501721000718853e+03  2.8858480585924030e+02  -5.8130072648273478e-03  5.8265191529786671e+03  -3.4274615375527781e-19  2.3567849226210019e+03  2.0675666845012507e-16  9.0422735946614878e+01  -9.8077340440378164e-12  -2.7380236243879414e-17  4.3078140795542973e-03  3.5970243320888797e-03  4.2688733742062159e-11  5.5824824331803344e-07  2.6187478929695129e+02  -3.4012727359441200e-21  -2.1941290922565561e-03  -1.7230247469795498e-10  1.0697302503953929e-21  6.9281132069228481e-05  -9.3933256107065499e-01  -2.7856628196893256e+00  -6.1368532841148538e-01  1.2170139082487094e-03  2.5912012125847818e-03  1.9823984088724204e-04  1.4524333154335974e-15  3.6270865042490556e-14  3.7733071941821211e-15  -4.7839724658111711e-13  -5.3394499391302213e-13  -3.0822950168694175e-12  -1.9212929069900964e-02  5.6974515897099927e-03  6.7826314147366296e-01  1.2470879019304747e-01  3.5255977718485415e-01  1.3453414258157331e-01  -6.7335268228026224e-01  -6.0715521847120719e+00  -8.5797749850608412e+01  -3.6089386963968494e+01  -7.0570401969264793e+01  1.3982434490086015e-12  2.9211552743322379e-08  5.3957669470212034e-10  -8.1819613234165175e-11  5.4764390518773458e-09  -1.8186852298860114e-12  2.1030341721903410e-07  2.2058692027500117e-09  9.9153502472124321e-06  2.7129803100855541e-07  9.5813747931841270e-06  7.0566471198517391e-13  4.0020709101333244e-15  1.1521719736816232e-09  8.5817869304564449e-11  7.1181702980146755e-15  -1.0480415891892103e-11  -1.4062162399492864e-10  1.2813143256162930e-10  3.5135845544855751e-10  1.3483880999531652e-10  2.0997710660985879e-10  2.1729894282205999e-10  1.0361304547218571e-12  8.7221758436854300e-12  8.8685205312822853e-13  2.0079765964106421e-12  1.2838802325902074e-12  3.8013265688563882e-12  -2.6311673518526424e-17  -4.5607580041387165e-18  -4.3763017199848187e-16  -8.0685001021530830e-17  -2.9269757232289303e-16  -2.9839875837563502e-16  8.3493627997815512e-04  -1.0192014828630316e-03  -1.7300980721746593e-03  -3.5636345832719065e-03  -9.1941799769305835e-03  -4.2665290761056511e-03  -4.8739833951675429e-02  -1.6234889998563689e-02  -3.7730180857287153e-02  -1.5965577769728546e-02  -1.3152950853631146e-01  -1.1443846553927776e-01  8.7295163885304644e-03  9.2468247003555659e-02  -2.9950376780354615e-02  3.0986869672363956e-02  7.8344212133140939e-02  -8.4826300033664662e-02  1.2258763104429245e-02  5.2761661951760097e-01  2.2799649325157240e-02  -1.6183502477037016e-02  4.8251876235870067e-01  9.4839951503179520e-01  -6.1702917611303316e-02  3.6491700779806852e-01  1.2574761088117473e-01  -6.1071016476173030e-02  1.1838934356818815e+00  1.5028948506111359e-01  -2.8115180770114367e-01  1.5717896706095333e+00  1.0798307508847126e-01  -1.6030731954628549e-01  3.0386447351084271e+00  6.8222943101858960e-02  -2.3056017957101638e-01  4.6491744307024438e+00  2.8609698552958571e+00  -4.1734933382803419e-01  2.8683976817522607e+00  1.8596005931277968e+00  -4.3595691715965179e-01  2.1037555728838033e+01  2.7889192444084081e+00  2.3862351595991655e+00  -7.0514215588678320e-01  7.2101985191492606e+00  2.7451428203445336e+00  -1.0808150856263778e+00  2.9357093921949911e+01  1.0805759959803204e+01  1.1610448773084018e+01  -9.7909684853035106e-01  6.3573557059209165e+00  4.0723109214339450e+00  1.3013379013504134e+00  -2.8466724326940845e-01  -4.9020954119960508e-01  -3.9421246383332759e-01  -4.1364678664337198e-02  -2.6191050004051752e-01  -5.6422441798798136e-03  -1.2369220556737594e-01  -6.2062156646800405e-02  -1.7258059471778300e-01  -7.1375117786813731e-04  -2.5992480241367660e-02  -1.0694728687031106e-02  -1.3284400778316616e-04  -7.4747130104086392e-03  -5.7785720212516871e-03  -1.9643116941188070e-03  -2.4223771947587512e-05  -1.0402528653937414e-03  -3.5725258656214062e-04  -5.9001474024330941e-06  -1.6985962925999447e-04  -1.8501687276977031e-04  -8.4470325323484198e-07  -8.2606396547267626e-05  -1.9345477999160678e-05  -1.9284232609511446e-07  -8.7506817263773751e-06  -8.3857230019242518e-06  -2.0370669220066126e-08  -3.9481140028302533e-06  -8.5683394935228196e-07  -9.8767351897980871e-10  -5.1975988090893944e-07  -3.3203893289938762e-07  -6.4526745711115202e-08  -5.6547005107410053e-11  -1.2413784620819317e-08  -1.3133112914399819e-08  -2.3389506920536194e-12  -3.4125526378715298e-09  -3.5074014887129656e-10  1.1334068991870834e-13  -2.7717367440603714e-10  -1.2300726683799712e-10  1.6766098004899290e-13  -1.8251814553470776e-10  -9.3539950577043617e-11  -1.3556711938342360e-13  -5.1618508342681298e-11  -8.8427125888339526e-12  -1.1518502964777917e-14  -1.8756255659808818e-11  -6.1551450454628263e-12  -2.9001935051280658e-13  -1.7000575181977914e-11  -5.4157555749701252e-12  -1.3832209767659010e-11  -7.5033495877321810e-12  -3.3353860627877116e-12  -9.9431732004285040e-13  -6.9623147626496114e-12  -4.7732752019742003e-12  -5.3978221420273830e-12  -1.2085928420049339e-12  -4.5882409967339149e-14  -3.0969623549640727e-12  -8.9674695865342815e-13  4.4942940677760350e-13  -2.3801050576885957e-13  -6.6605494231116739e-13  3.1333305568104790e-13  -1.0852430957891589e-13  -4.5834449028849573e-13  2.1730389102777864e-13  -2.9422381452484692e-14  -3.0354149814995224e-13  -4.0255100398437256e-14  -3.2767860162165975e-14  -1.9632658145637763e-13  6.3400821484139333e-14  -1.2562261699834892e-14  9.4354494245078123e-15  -1.2222180802449219e-13  1.5106425539963206e-14  -1.3688734418090319e-14  -8.1473635743946157e-14  8.2768139043408599e-15  -1.3163942638056789e-14  -5.1895703808961430e-14  7.9927822015633883e-15  -1.0875705929884175e-14  -1.5166953831278845e-14  -3.3076833933825934e-14  -1.3574220154390855e-14  -2.0553825823171975e-14  -2.9613236875512143e-15  -5.5406483872342530e-15  -9.7582284227345448e-15  -1.3189557773442738e-14  -4.9815363249927330e-15  -5.1945574349694311e-15  -8.3301083460487128e-15  -4.3065310595568069e-15  -4.2665676776839492e-15  -5.0695288293373328e-15  -5.2136725368707329e-16  -3.1855322273505333e-15  -2.3980016200750002e-15  -2.9126297893435709e-15  -1.0394899673817758e-15  -1.8677063835863396e-15  -1.4024945352406858e-15  7.3310835338504523e-16  -4.8028933167065040e-16  2.4315916163404815e-16  -2.7192423842051303e-16  7.1421733193409612e-16  1.4616634036261228e-15  2.5188073326143597e-15  2.4559460957630752e-14  8.2069218657319810e-15  1.4953652257379843e-14  3.9568636992035458e-15  1.7145594104310679e-14  6.6815296348159946e-15  1.8500185319732817e-14  7.8157918859235412e-15  1.5046921024364024e-14  -2.7746197185156025e-14  -3.9430869433321147e-14  -8.6956061812952994e-15  -3.7006647069205627e-14  -7.9610981830101501e-14  -1.0471269826132530e-13  -1.1307979112218874e-13  -5.2935670004209331e-13  -1.9512537110769628e-13  -9.8188008758305279e-13  -1.0235216413891112e-12  -1.3169594917872379e-12  -3.5950356591901663e-12  -5.8807497630313725e-12  -2.5379797351817511e-12  -6.3824478470666650e-12  -1.0547694565234315e-11  -1.2501349317569377e-11  -2.6107867534149596e-12  -6.2496596671681194e-11  -2.2735905348254585e-11  -2.0300338464446015e-11  -3.6713808469538583e-11  -1.1198401210285930e-11  -2.8627595725594209e-11  1.2662079095753466e-10  -1.8188963931172544e-11  -4.3550856190382729e-10  -5.6367598452441666e-11  2.7790084804820461e-08  6.7813338304869612e-08  3.5997947569622699e-09  -1.0224751381759381e-07  4.0288613276968256e-07  1.6699243626749466e-07  1.2873097409061577e-07  