<?xml version="1.0"?>
<VTKFile type="UnstructuredGrid"  version="0.1"  >
<UnstructuredGrid>
<Piece  NumberOfPoints="7863" NumberOfCells="15264">
<Points>
<DataArray  type="Float64"  NumberOfComponents="3"  format="ascii">0 0 0  0 1 0  1 1 0  1 0 0  0.25 0.15 0  0.25 0.4 0  0.5 0.4 0  0.5 0.15 0  0.6 0.6 0  0.6 0.85 0  0.75 0.85 0  0.75 0.6 0  0 0.9499999999997918 0  0 0.8999999999995836 0  0 0.8499999999996529 0  0 0.7999999999999998 0  0 0.7500000000003466 0  0 0.7000000000006934 0  0 0.6500000000010401 0  0 0.6000000000013869 0  0 0.5500000000017335 0  0 0.5000000000020587 0  0 0.4500000000018723 0  0 0.4000000000016644 0  0 0.3500000000014564 0  0 0.3000000000012483 0  0 0.2500000000010403 0  0 0.2000000000008322 0  0 0.1500000000006241 0  0 0.100000000000416 0  0 0.05000000000020799 0  0.04999999999989965 0 0  0.09999999999981467 0 0  0.1499999999997036 0 0  0.1999999999995579 0 0  0.2499999999994121 0 0  0.2999999999992664 0 0  0.3499999999991206 0 0  0.3999999999989749 0 0  0.4499999999988292 0 0  0.4999999999986943 0 0  0.5499999999988151 0 0  0.5999999999989468 0 0  0.6499999999990784 0 0  0.69999999999921 0 0  0.7499999999993417 0 0  0.7999999999994734 0 0  0.8499999999996051 0 0  0.8999999999997368 0 0  0.9499999999998684 0 0  1 0.04999999999989965 0  1 0.09999999999981467 0  1 0.1499999999997036 0  1 0.1999999999995579 0  1 0.2499999999994121 0  1 0.2999999999992664 0  1 0.3499999999991206 0  1 0.3999999999989749 0  1 0.4499999999988292 0  1 0.4999999999986943 0  1 0.5499999999988151 0  1 0.5999999999989468 0  1 0.6499999999990784 0  1 0.69999999999921 0  1 0.7499999999993417 0  1 0.7999999999994734 0  1 0.8499999999996051 0  1 0.8999999999997368 0  1 0.9499999999998684 0  0.9499999999997918 1 0  0.8999999999995836 1 0  0.8499999999996529 1 0  0.7999999999999998 1 0  0.7500000000003466 1 0  0.7000000000006934 1 0  0.6500000000010401 1 0  0.6000000000013869 1 0  0.5500000000017335 1 0  0.5000000000020587 1 0  0.4500000000018723 1 0  0.4000000000016644 1 0  0.3500000000014564 1 0  0.3000000000012483 1 0  0.2500000000010403 1 0  0.2000000000008322 1 0  0.1500000000006241 1 0  0.100000000000416 1 0  0.05000000000020799 1 0  0.25 0.3500000000002234 0  0.25 0.3000000000004466 0  0.25 0.2500000000006611 0  0.25 0.2000000000003316 0  0.2999999999999999 0.15 0  0.3499999999999999 0.15 0  0.3999999999999999 0.15 0  0.45 0.15 0  0.5 0.2000000000000022 0  0.5 0.2500000000000046 0  0.5 0.3000000000000067 0  0.5 0.3500000000000087 0  0.4500000000000001 0.4 0  0.4000000000000001 0.4 0  0.3500000000000001 0.4 0  0.3 0.4 0  0.6 0.6499999999999999 0  0.6 0.6999999999999998 0  0.6 0.7499999999999999 0  0.6 0.7999999999999999 0  0.75 0.8 0  0.75 0.7500000000000001 0  0.75 0.7000000000000001 0  0.75 0.65 0  0.7000000000000145 0.6 0  0.649999999999899 0.6 0  0.6499999999996818 0.85 0  0.6999999999997106 0.85 0  0.2987828851411449 0.699325350601735 0  0.7568105424598444 0.2773422776226307 0  0.1795454545455548 0.565909090909074 0  0.8224999999997471 0.4374999999996759 0  0.4210672245123 0.8298112703689309 0  0.1704342645355456 0.817589228320629 0  0.4288291996927651 0.5807253322680467 0  0.6700168933784714 0.4454283174013861 0  0.8465566460363076 0.1536642418117631 0  0.6487495650826139 0.1583009537413474 0  0.1302432088118011 0.6870436331969506 0  0.4678571428571685 0.6999999999999645 0  0.3001247914658854 0.8712026118102825 0  0.3037919960474855 0.5294342885375104 0  0.130623183832229 0.4401092867706953 0  0.8659552483879646 0.3224251422433174 0  0.8736312978505528 0.5612537349962974 0  0.6245633418427496 0.3030766659003465 0  0.1250000000000379 0.2750000000005539 0  0.8734358317010626 0.8762010003539712 0  0.1254835060363831 0.1258252413885224 0  0.8749999999999343 0.7250000000000005 0  0.5181687217833718 0.5314910246240141 0  0.7500000000000194 0.1068693693694355 0  0.5185460717145034 0.8908201301560481 0  0.1043949820060815 0.9055901675413394 0  0.7472304391142466 0.4937115169957552 0  0.7437057827977005 0.3796800519519853 0  0.5837666239123878 0.0953941305957148 0  0.902362942345899 0.2218145421277327 0  0.1069592086353165 0.6081316226431639 0  0.5943281866118556 0.2221187317759835 0  0.09231256724200733 0.7788120293054371 0  0.2599118360316645 0.613680451156976 0  0.386610176029564 0.6631887582313238 0  0.2537946126497011 0.7917216350769677 0  0.9088286731471231 0.4704266021303271 0  0.5063995803351647 0.6198623457584774 0  0.3860058725664629 0.914148551469585 0  0.5069733898137954 0.7690591741519245 0  0.2189083152479363 0.9142871916137685 0  0.09240943628007152 0.353587386157095 0  0.3923666487137664 0.4973261685045393 0  0.9117702211709445 0.6463336145912728 0  0.2237945603996098 0.4867857348645567 0  0.9161970975027582 0.08252283236527229 0  0.3461519581374356 0.7752338663700789 0  0.6110313179874225 0.5139303735626758 0  0.08254453868152074 0.5295949336450964 0  0.5783651695896583 0.387014424669225 0  0.7680988053275425 0.1909346846843861 0  0.9202288100287571 0.8014462386955867 0  0.08317821648800833 0.2045345244679453 0  0.6743674448775834 0.2381773292297286 0  0.8014729691714902 0.9151682085422 0  0.1982142857142988 0.08392857142857235 0  0.9156947390731955 0.3830592165702195 0  0.2099925163896727 0.7117346125224077 0  0.8288873197852951 0.7991354001759553 0  0.1710420590992359 0.2009730661079498 0  0.8302601404977216 0.6362505489697606 0  0.8278972189280196 0.2432708264037497 0  0.1724373447570453 0.3750000000001119 0  0.8263815004216721 0.07675344797416643 0  0.6734552612001731 0.07775097080953899 0  0.6322765317037635 0.9278922409848336 0  0.3328795603068665 0.07550965653377333 0  0.4218141641894588 0.07552083333321569 0  0.7202413378918148 0.9252992098071467 0  0.3398398570642138 0.5956195883200471 0  0.1876245270259333 0.6393374142670434 0  0.5053993339633923 0.07647011170888637 0  0.0718750000000897 0.07187499999995482 0  0.9281249999999797 0.9281249999999464 0  0.4615331046556409 0.4767930683020147 0  0.8132809042322462 0.3596726603183649 0  0.8134265276406807 0.5108303348297808 0  0.4201515737436131 0.7514965833054841 0  0.9273040324515954 0.1585949917491647 0  0.06708721766401626 0.6750163115727243 0  0.56422475897686 0.4552131930394481 0  0.6791346043894576 0.5327473050102175 0  0.697255269395278 0.3214473484424947 0  0.2802981881263434 0.9339285714286927 0  0.5339285714285894 0.6802981881261965 0  0.1655838508805648 0.7568246324058057 0  0.07055580426794442 0.4304123740962421 0  0.3226088857382223 0.4646105576694787 0  0.5680970217443936 0.1590416415060358 0  0.4428489297902234 0.9319457679008186 0  0.9477157065683794 0.5858496809090185 0  0.9359768099749814 0.2904579204473128 0  0.1742846135096847 0.3003953810640202 0  0.06918270446438632 0.8409433163409716 0  0.8252358436657874 0.6976195482341206 0  0.5635633234700967 0.284788731469481 0  0.5521945854607904 0.9257613588772547 0  0.3635427058143873 0.8407659882482055 0  0.4499814782289108 0.6338364401188512 0  0.2390953482890149 0.8431241519968201 0  0.1517067680066363 0.9343448395931244 0  0.06539387153795677 0.3019693576901929 0  0.2575632692678596 0.06394502601111231 0  0.6555411638130636 0.3716910457745546 0  0.1608726846099766 0.5049389228359271 0  0.934949728583427 0.6997486429173009 0  0.2433845767894122 0.5499237975678901 0  0.939237790491481 0.8554484180187727 0  0.0630223880597205 0.1401119402987738 0  0.1348958333334102 0.06197916666672756 0  0.865104166666832 0.9380208333335958 0  0.7604230740984012 0.4373799400890658 0  0.5372647219903939 0.8402823937523813 0  0.1923510154511563 0.1420055354945893 0  0.8075445196362099 0.857996515152053 0  0.1885591087578553 0.4337380820533954 0  0.7105225609509752 0.1526657632181078 0  0.3666090240151971 0.7062960373879834 0  0.7966936723524515 0.3163062291281787 0  0.5508714508660905 0.570011516337836 0  0.4721626247170084 0.554486293857005 0  0.8002707048946301 0.5730607189697422 0  0.06641773621617075 0.9351618371252797 0  0.3665814154358935 0.5517819541861106 0  0.05442204514635005 0.7231523959702606 0  0.6284828997490257 0.05004553457671893 0  0.9398712002144101 0.5109326544100544 0  0.5433787542275291 0.7375061851781469 0  0.3375061851783711 0.9433787542277096 0  0.7215297270911555 0.05410988042852424 0  0.4797837765982246 0.8425479205787176 0  0.04271365523339227 0.5671101206092209 0  0.8714625424823598 0.3953934577117953 0  0.1490428061304692 0.875151828016147 0  0.2781199925553454 0.4510243744904079 0  0.5565677762207972 0.3450127136714147 0  0.1940357533673813 0.2535689772727561 0  0.3766403934953488 0.04740981637292114 0  0.2545866346220484 0.6725938042819365 0  0.3074605043080991 0.8017072464925095 0  0.8056636005117194 0.7469721857454302 0  0.1269450100636947 0.56224828215199 0  0.05350185589295817 0.249017632611271 0  0.674777132742694 0.8963085370316726 0  0.5117683592953793 0.4496907486941994 0  0.1169833904185793 0.8254360225452316 0  0.04504201214567945 0.4768561077888308 0  0.3055599085954928 0.6382433889748717 0  0.9450727948239286 0.7538737512009489 0  0.4306417842714623 0.8796919592677241 0  0.7923856483923215 0.141724914569402 0  0.8728297214303689 0.04978308383419468 0  0.9486377781753648 0.4273242585722439 0  0.437541018947418 0.5220595462426839 0  0.9484027151197005 0.346539625994936 0  0.7281038251562784 0.2284601524070051 0  0.8668606734410613 0.6709737204112667 0  0.690214514677936 0.4804244848868111 0  0.8493847380621981 0.4812225068388546 0  0.1333737946122648 0.326539344567937 0  0.7219350493285639 0.5495541898924469 0  0.6750000000008667 0.9530034763360794 0  0.6303201059992649 0.106643697324949 0  0.7119144016103087 0.4146430422909549 0  0.3761225040737161 0.1044665480092788 0  0.1419061815543131 0.6445935072656427 0  0.5010710576848406 0.9417334264593 0  0.8586198319213173 0.207759071572462 0  0.9472598698250957 0.05274013017491718 0  0.2988553637576897 0.7535345997678686 0  0.7805552894816058 0.05315972730291021 0  0.4120655818059855 0.7045889958912197 0  0.7495113277877659 0.3294098108501303 0  0.6308381164613092 0.2525569635330791 0  0.05405789668501901 0.6246
[...]
<PointData  Scalars="f_411"> 
<DataArray  type="Float64"  Name="f_411"  format="ascii">9.5948602441618477e-15  1.0100826578644435e-16  5.2967184643311860e-01  2.3410458919887200e-02  1.2083220931780671e-12  8.5412498976934748e-16  8.6226409017903672e-03  8.7829502170101004e-08  2.3138138837232925e-03  1.9711161513159279e-07  6.2129741320856454e-05  1.0241522983383824e+00  2.3248790192353017e-16  2.8715544691619200e-16  2.6512208418630455e-16  1.9599966296694897e-16  1.4255554388100500e-16  9.5325106464450488e-17  6.0550000511544809e-17  3.9368800121143317e-17  2.6597717939476513e-17  2.0260753239483801e-17  1.9498503069574430e-17  2.4918402491525339e-17  3.8058508347328120e-17  6.4174286498263680e-17  1.1140835759586592e-16  1.9440223739133883e-16  3.4747256721779722e-16  6.1168524889921635e-16  1.0621450665359006e-15  8.4133806936789831e-15  1.4791968852519953e-14  3.1750751350327392e-14  1.4075834884467744e-13  5.2669435010981644e-13  2.2494370309474876e-12  9.8440719135356491e-12  2.7974379757560464e-11  4.8288882374554189e-11  5.7425422144838391e-11  1.8810834307395513e-11  -2.5515678385645222e-12  1.2593603362371027e-10  1.2192330888968350e-09  -8.4741588882169646e-07  -1.8819605798175458e-06  4.2752635258775366e-05  2.2181926554790151e-04  5.3546416092964590e-03  1.6244317862965427e-01  4.2294758473991073e-01  7.2816119369421384e-01  1.1691337512969602e+00  2.1674730956753008e+00  3.2872710755378840e+00  3.9457871459824374e+00  6.0510985792954539e+00  7.6941320211668636e+00  7.9718987474500356e+00  6.8173121180874698e+00  5.9556800223374600e+00  4.4935623779120677e+00  3.2575570161713459e+00  2.2415727110030037e+00  1.4913756741882713e+00  9.4548519392240959e-01  6.0006378634903079e-01  3.6308740919157606e-01  4.4559546060128109e-02  5.0276789551807442e-03  5.2182017539044413e-04  5.0515692183558572e-05  7.4309682502138914e-06  1.3983002559914658e-06  2.9569922989600325e-07  5.3153736057035284e-08  6.3613561744946303e-09  4.1136328907949241e-10  2.6849789221990817e-11  1.3782054174140098e-12  9.2420705243050094e-14  1.3703550184959970e-14  3.3288166635149856e-15  1.0960942377683086e-15  5.2731673284272935e-16  3.4345357513402711e-16  2.8448605588532379e-16  7.3400587965500842e-17  3.7886339547294941e-16  5.7114673018794857e-15  9.2199122222575446e-14  1.5547268982920353e-11  1.2014399967182369e-10  9.3997370551390133e-10  1.0014269820701766e-08  1.5086855321271086e-05  6.4040874276697791e-03  2.3261833706891027e-02  2.6057174603733874e-02  1.2487390029108769e-05  1.8570847226720732e-08  1.9883359646395867e-11  4.7166176960473660e-14  2.8460242414642063e-06  2.6413295710053230e-09  3.8890877072497048e-12  3.9264178054411731e-10  2.6865776961556935e-04  2.2188031641254984e-03  2.0084487380844077e-02  1.1686135197124828e-01  4.1390211586543918e-01  6.6231776690795982e-02  7.8633407338393053e-07  5.8337732167576974e-06  1.5083012508365740e-16  6.6268876961815846e+05  6.2187375382753197e-20  1.4008206714468474e+03  5.1251674298168539e-10  7.1518032462035130e-17  8.3981197799140865e-10  1.9818595778179708e+03  5.7070794829282713e+04  6.7974386758915684e-01  7.7498935887955488e-22  4.2452419300102451e-11  1.0000737941015977e-11  1.6850694813743238e-14  3.5765764175058313e-18  3.5070877517715730e+03  2.3730797012583999e+01  5.8214301122740490e+03  4.0679126642521439e-17  1.5575938045863002e-02  1.0965643400008745e-14  2.2103625089159366e-02  1.7977586641851754e-04  2.4466034058570156e+00  2.2539506896291629e-07  2.0503941413705349e-14  6.6643315661572933e+02  4.6040691491597776e+04  4.2620618167711821e-08  3.4111646963621577e+04  1.0451591350548254e-19  2.0377058508630356e+01  4.5755275628225503e-18  9.4293789846285132e-18  3.9797140063073059e-13  2.6037023597822631e-16  1.7251970703237581e+02  1.2634983880602505e-07  3.5178406943078495e-10  2.7620046441078563e-11  7.9031374320387079e-13  4.6511862148653776e-18  2.0237778106462693e-10  2.7646651041495049e+00  4.9954410039298968e-16  3.4221477328111149e+02  2.3488204875361991e-14  2.4187038214579717e+00  1.1449880099168619e-18  3.7856443603637977e+01  1.7211266885809321e+05  1.2654240173266920e-01  6.2463280342965497e-17  3.3610613397562011e+04  2.5571635983922545e-03  3.5902662102434708e-13  1.3306797788827985e+03  6.2034464371808194e-20  9.4396561000013705e-04  1.0933139324073063e-14  7.1512631002490668e-01  2.3445043912123685e+05  1.3642886787451609e-16  5.2714848829473446e+00  1.8371735618433715e-05  1.3118000583135711e-05  3.4385694487050135e-11  5.4482854818657228e-10  1.9868501236737474e-04  2.8827186926143330e-14  1.6273779786964652e-21  6.3804424783862201e-09  6.7670771086637059e-15  6.9956918771892904e-02  2.4265358211284977e-06  6.9711186455880033e+03  3.2685904764180515e+02  2.9884804796510168e-13  6.4091893292668119e+03  1.2623612671727758e-17  7.7476186323249119e-01  2.2065671931179043e+01  2.0186098769692876e+05  2.4841270566988246e-12  7.2365605336167361e-09  8.5613244934404239e-20  3.2497263733792380e-18  2.2887707364141093e-13  1.0829926792709800e-04  3.0985713779719814e-09  2.5860158174517029e+01  3.5921723333738369e+03  1.3732666190064829e-15  5.3079937241476336e-16  5.2907976344271024e-02  1.9186821233129102e+01  7.8010522381275707e-07  5.6900832445485519e-11  6.8378504717066195e-10  8.9872856978816683e-14  8.3936597480281813e-14  2.1136701821822134e-17  2.3024492296736388e-12  1.5894388014559348e+04  1.2353566364782364e-18  2.0001545438489101e+00  8.4577151721694848e-17  2.0176589014082502e-01  5.2158597800577757e-16  3.8295973106910580e-14  1.4083239830264299e-02  6.5049621188757565e+03  6.3620008747396884e-08  1.4758204705485255e-13  1.3177519597799569e-03  1.4848887182836469e-16  1.2852096562970246e+02  5.5332776859158397e-14  6.4034006475390132e+04  3.2747614137333220e-04  4.4573051337980779e-07  1.2919056832660347e+01  1.0432468348435667e-14  2.1905007081306531e-12  6.1173773101735483e-17  6.8387995857701324e-10  1.0075033006202835e+02  2.1840247047821505e-11  1.1503514311306944e-11  -1.7147744696726878e-05  1.3534156373871468e-08  1.3695285242417204e-17  3.2640413947679383e+02  1.9105928613865503e-14  6.6504670370878079e-15  8.8613415544584200e+00  1.1634549949683217e-14  7.2966875735040027e-11  1.5029111240710896e-18  4.3053879350647744e-14  4.5434839393430956e-03  3.9214335303675994e-20  6.3906449938607342e-17  3.4632487222169182e-05  3.6069751126228127e-03  6.1010036149920654e-17  7.0092418418760771e-18  3.4577204849524548e-16  1.1049233959211735e+00  4.2189474641882421e-09  8.3691589854578815e+03  8.4917129984002471e-01  3.3543246916482769e+02  3.2586527022958574e-08  8.7160194009329359e+02  3.2144396228606533e+05  2.0534618776077251e-01  6.0445710228232053e+02  2.5138179157929707e+02  3.3322952578761188e-17  1.7657323758766939e+01  2.3900876882416550e-05  7.7394755947317030e-06  1.6274344336682847e+04  2.0477429540294642e-10  8.4383475792719345e-22  4.2702862246388614e-08  1.5960374733004853e+05  1.8125147327224258e+01  6.8551452235045756e-16  -1.2208582875451240e-03  1.4768665836805208e-12  1.9816856327197570e+05  3.0837081980463618e+03  1.5737333053668427e-17  2.3484321920699909e-15  9.2794011621442681e-18  1.1809543809362433e-12  2.8493910215929722e-09  1.8860096801573085e-08  2.2178306865774724e+02  2.0764761692439275e-12  3.1451605618311751e+04  4.2329811906221865e-04  1.3600516245074451e-17  6.3119731906505393e-07  1.1678284820005579e+03  1.6006164939979747e-14  1.3390323022876615e+01  3.9936018516372576e+02  6.9091131985929652e-18  5.8500034976492032e+01  1.3738257239357783e+03  7.0122655886696804e-16  6.6556313768816157e-03  5.0250664574148769e-06  9.2008599896900982e-14  2.8233319030153794e+00  5.9169820872400910e-10  3.7620130298208488e-09  3.0063645854703402e-01  7.2927150911962883e-08  9.5411972482598543e-16  2.6604982430661358e-19  1.6987081485654862e-20  2.7265185517946538e-16  2.8791337238968345e-01  4.9087036628241102e-03  8.2984985330671457e-17  1.3151977478359483e-10  7.2061955364871025e+05  6.0846218339022318e-01  1.9378174196962003e-11  7.7557220483356156e-12  4.9458990556769109e-10  7.9360255073910187e-11  3.5836921023401321e+05  5.0167131764727294e+01  2.2191580422517725e-03  1.0464291686456371e-13  1.4896213864872209e-17  3.3883557575724422e-10  2.8648322665928962e+05  2.1779586396377022e-02  1.7697628223813153e-09  2.6617303113071324e-12  8.7966358706135239e+01  5.9347109933616401e-04  -6.4230135528535875e-03  2.7810666571634670e-12  3.0116350989883500e-15  7.4343423502916950e-01  2.2962966090746117e-16  8.4280011786103187e+03  9.8156604985387375e-13  3.9964922885300557e+03  4.1036529038385407e+02  1.2418108280050915e-17  1.3921216672824833e-12  1.4463691395567321e+03  7.2652859710250776e-19  1.5467252152440002e-17  3.7564526107967138e-13  6.6747451188437506e-22  5.9492143773980840e-06  4.3571867148333026e-15  1.0464661354827663e-03  1.2240953854670521e+02  1.4633941556446321e-21  2.4472402988920058e-04  1.5500220296248532e-13  1.1659401806641524e+03  1.6576586403474919e+03  1.0029187816030086e-13  1.0968475634138110e-01  6.6697448740227862e-16  4.6920884323511760e+04  7.4673274907192346e+04  9.6378724077573000e-07  1.4541564754906917e+03  3.0087528694610887e+02  4.1277722238037088e-08  4.6896373529823335e-19  8.8840116348690628e+01  4.1046486434243905e-11  4.7648048477434259e-12  7.1394526449740075e-03  8.2381565269944264e-14  7.1244001665606978e+04  1.1296419460476331e-15  2.5154450919363891e-01  3.6048903234784554e-15  1.2307576964339420e-01  3.3068180909087999e-05  3.3028339870863341e-11  6.9916452190990377e+00  8.8853130239831680e-05  1.7078111452010047e-16  9.9797218323264115e+03  4.8074418482337895e-05  3.0063320099175102e-17  5.3808826272717140e-06  1.3384026851327909e-09  1.2896078740182972e-10  2.4668755857300333e+01  9.6323268074544266e-01  2.9709371471276006e+02  1.1849715799708682e-14  2.8065470714717568e-02  3.3493310973207759e-11  5.8579932853957115e-16  1.1417549065388469e+02  5.4980701412658633e-10  5.8388957182226864e-01  3.1350585163018705e-18  1.3379856169489162e-09  2.5788172035870384e+03  9.9175282837507048e-05  7.2892214243841549e-14  4.7779495698461805e-01  4.0451158013398800e-15  4.9972988373119386e-02  1.2523145796664808e-19  4.5739803476206286e-14  2.4397010736826571e+04  3.1905677970688195e+01  2.1464552550251950e-19  5.3527856308732335e+03  2.3438446205362406e-14  2.0863505670131567e-19  1.4817442777786532e+03  2.0168912810658875e+02  6.8968979178810361e+00  2.2403056112296248e-06  4.3510520872940737e+02  1.4089725036267633e-11  7.4249288895342580e-01  5.9035911685765321e-13  5.0617769426291979e+03  7.6755885834734134e-14  3.9509767488577318e+03  6.8387083318717206e-16  5.4263008942959661e-17  5.6696964935976650e-10  1.6845051385318085e-04  1.3067679119234829e-01  3.7617852412875727e-02  3.3897963565455953e+00  6.2570857210511719e-17  5.2074495025749693e-14  3.0432143700590248e-08  1.4597049358084795e-17  5.2439369953997464e-03  7.7286387681705965e-04  1.3284333716704543e-15  4.4398517952191920e+04  4.6496533462210554e-10  3.0329484988334166e-01  4.0174439816401966e+04  1.4937586204056210e+00  9.2511160690372516e-12  3.9748449888842616e-15  1.4332920582254534e-02  1.9850354734829109e-15  3.5222469119522306e-06  8.7730458334525883e+03  7.4343535603285145e-17  3.2120995299026839e-01  8.4677778611183665e-08  9.6452528020979429e-14  2.8119919089518203e-03  2.9727987510558857e-20  9.9082693963191577e+00  2.1523379924218959e-08  5.5042228937718741e-18  1.4696071167642469e-21  6.7203554730135040e-01  2.7049787287902598e-19  1.3728317182321950e-16  2.3761145938285919e-15  1.9203337915466306e-08  1.2259283239685858e+04  3.4615589804293821e-02  2.8443454499587686e-16  2.3031626899202859e-18  2.4136279003284864e+02  5.1782369581383545e-17  4.0523579201028798e+02  2.8334063397618880e-11  8.0774207452851743e-01  1.2933243783128697e-17  2.9352887569591902e-13  3.7346557115613848e+01  2.2059571798736920e-13  1.6036941450700732e+02  1.4658128343364423e-11  1.4117100469027513e+00  3.4509178301727687e+01  1.4310294124055132e-02  6.8820222342592866e-08  2.4359167609257000e-15  3.1914710773950401e-15  3.0792284608631096e+01  2.7998374296547663e-12  1.5341877587505709e-11  1.2167812990563560e-18  2.2144762104608912e+04  8.4100307668060842e-02  1.1401446023999600e-15  2.9931929404535828e-09  4.4021679643328139e+05  5.6812544444717624e+01  4.4059468521253978e-14  4.9693060179281612e-15  5.4481019049537122e-19  4.2333438477057551e-03  1.5129748862031111e-14  2.4998438906681209e+05  1.4270680912785317e-11  2.8054236201927998e-10  4.7665070206691735e-06  5.0652508751090932e-20  6.9456255487778549e+00  1.8318597763969725e-17  1.2926091783862699e+04  1.2439963360758603e-16  1.0605811741670019e+00  1.4898155560404291e+02  1.6966737193050247e-12  7.7189992987228228e-12  8.9402204448723424e-10  5.6596107430361688e-13  2.8095914579336830e-16  1.3054311967220849e+03  2.4584742435117669e-04  1.7791699162183369e-10  8.1566586034193313e+02  1.8129497461365561e-08  1.7233376235437004e-15  8.3261998519731844e-15  2.7302189632603548e-15  1.7251115857934087e-16  2.8883770426360293e-16  6.6164756830717575e-16  2.7896069440424986e-01  1.7120525352940141e-01  1.6456884173155625e-01  4.4143157852950400e-02  5.4088369541881211e-02  1.7436637151922801e-01  3.2601621726768769e-13  5.0672301309340601e-12  4.3889034626644797e-13  3.0522260292018779e-12  1.2228521320359070e-12  3.8876964115849460e-13  1.8598514225447844e-16  6.4322308490001384e-15  2.3778711311890523e-15  2.1715516443533260e-16  5.7345698739768731e-16  2.2318356912432537e-02  3.3762297317781111e-04  5.0564550460100123e-03  6.3400774862758927e-02  8.0259577832850519e-04  6.9243586052307321e-02  3.2498866830454563e-08  -1.0944716039025268e-06  8.8426935479837366e-08  1.5809317921588954e-06  3.9866715843663491e-08  6.9612804573393678e-05  1.9648770755794805e-02  8.9013223084444466e-04  1.0633063083830623e-04  2.8987570178317216e-02  9.5738846099128229e-03  9.0900541823883650e-09  3.2512330153128559e-07  4.7586336281755154e-07  1.1248357672611869e-06  1.5873139649208168e-06  5.5645524103403355e-08  8.1748487675153872e-05  1.8081726381141961e-05  3.3649703548828191e-04  2.4158551214736952e-04  1.0609453669176050e-04  7.0768299775353450e-05  2.7511888981342297e-01  9.1156282001711664e-01  3.2420750743785631e+00  4.0271271692759321e+00  9.3021473758241413e+00  7.3536691547874411e-01  2.5990940406391509e-16  1.0496656885607761e-15  8.6363019145883087e-16  2.9868483995084886e-16  1.2948605067537902e-15  8.1660253033628809e-16  2.2308932958723885e-16  9.5191021681662309e-16  5.1764808687787105e-16  1.7031211906011817e-16  3.2395385410825262e-16  3.7930547462981851e-16  1.1776495164324325e-16  1.7268074360321386e-16  2.4124587071988875e-16  7.5792441422433370e-17  1.2269580319996066e-16  9.3846210548348238e-17  4.8956080009487545e-17  4.9862855110712513e-17  6.8560106637014770e-17  3.1899057852925653e-17  2.9054202617027368e-17  3.6152805443407689e-17  2.2766477913650809e-17  2.3470244756683623e-17  2.0842635100544369e-17  1.9140091646906737e-17  1.4824312950172825e-17  1.7836892432738464e-17  2.1416657740419024e-17  1.4637901746336642e-17  1.7319842271209726e-17  3.0153295801796578e-17  2.1755923766714966e-17  1.9866546725594255e-17  4.9318806015770537e-17  2.7451736757213819e-17  3.7471612606705586e-17  8.4343523526112832e-17  4.9864006050530786e-17  6.7832685227782102e-17  1.4745226406210473e-16  1.0057579726598800e-16  8.8907872479494325e-17  1.2878018458171078e-16  2.5524499934363387e-16  2.2072999938727639e-16  1.7282230277491859e-16  4.5713131109165585e-16  4.3327871020854721e-16  3.0308530725506536e-16  5.4576629793223520e-16  8.2349733989512258e-16  7.7098036610365130e-16  1.1607860834159062e-15  1.8075024834560160e-15  1.0411672622476962e-14  5.1023907403287124e-15  7.5310231921473181e-15  2.1111325294158484e-14  1.1571704706747874e-14  6.3252646949233171e-14  3.0997834361000906e-14  4.9214510519841655e-14  1.8728513980209643e-14  2.8000814333871082e-13  9.8465609861189502e-14  1.9854754328639830e-13  1.0494350588451453e-12  1.1323657777626976e-12  4.3199141114954972e-13  1.2786809860384415e-12  5.0099423438401359e-12  2.5365498728438181e-12  4.7640168989815504e-12  1.7764388287983746e-11  2.1848449029070526e-11  1.0118133726895679e-11  3.7780304096945457e-11  3.9937703274931350e-11  5.0786366379136685e-11  5.8081394992015231e-11  1.3632246621057352e-10  7.3761234794052947e-11  4.0439019717868256e-11  1.9205446806673664e-10  1.5154063029153897e-10  1.0333879854812212e-12  3.1084619253564002e-10  1.4905169644429604e-10  8.6370049117783466e-11  2.3792304713403184e-11  3.3037856668642866e-11  2.4658796684137663e-11  3.0888147083681856e-10  1.1331778780318563e-10  2.0205323390400226e-10  3.0341721000741559e-08  3.1865198350161535e-07  2.0690835299243505e-09  2.2070369053817731e-06  -8.0718108555765402e-06  4.2218951023847172e-05  3.0858943933848586e-06  -2.8832157842964584e-05  2.0462597547910184e-06  -2.7906402703260308e-04  -3.5378093640620842e-04  4.8848377836210179e-05  2.8032634510883957e-03  1.0494145786283838e-02  9.2100875477541463e-03  7.0840891770377490e-01  6.0433680697697043e-02  1.0275920570734855e-01  2.2366221660098839e-01  5.2366677406277287e+00  2.5397994504073691e+00  6.6453523572796791e-01  7.1505505513849188e-01  1.7384521914742436e+01  4.2580133059773591e+00  6.9445566692389771e-01  2.6449021289946479e+01  1.9512264465653253e+01  2.2095706460504587e+00  5.5705793528677340e+01  2.3626439913983504e+01  2.5548392419604484e+00  6.8176074270810403e+01  4.1050600731312571e+01  3.5015128654038223e+00  4.0727426656867181e+01  4.3584931881084451e+01  4.9336400747802616e+00  1.0931805671324508e+02  5.4742938254621833e+01  5.6338973609096413e+01  7.4569706357611878e+00  7.6320609134010226e+01  5.1215302397678116e+01  7.3886426399996230e+00  6.6633480283372577e+01  3.9496333159480926e+01  7.0340175533635501e+00  5.1859809686351653e+01  3.4382004202064920e+01  2.2129152421652215e+01  6.3529178332408831e+00  1.7402245440707020e+01  5.1513484362415936e+00  1.6090896830810955e+01  1.1079545444091742e+01  1.5069145832279538e+01  3.8514681678145468e+00  8.4226220379131522e+00  6.3415174380626507e+00  2.7064644765163783e+00  4.8657304112924917e+00  3.5665229538718823e+00  1.8287425289578287e+00  2.2482121061781126e+00  2.7817856805304477e+00  2.0102379745556695e+00  1.2103700782573863e+00  1.2403405421438538e+00  1.5650427985454389e+00  7.6332344984509060e-01  5.9717627877357005e-01  9.2994722404122354e-01  5.8356887236340926e-01  4.6730265275093463e-01  4.4604264017483869e-01  3.2570017498763326e-01  2.3952436902820759e-01  1.5691767924339899e-02  7.9421083572334752e-02  3.5582255484719452e-02  1.5509381352709487e-03  1.3815480703480399e-02  1.4393425303960042e-04  4.6859769996096803e-03  1.2044563525181100e-03  6.0389865555567097e-03  1.9014349884267675e-05  1.6813456608487056e-04  4.0287813178203224e-04  2.9758208691879237e-06  6.7162087800393561e-05  1.8520648462062586e-05  7.0190684933867762e-07  6.5106173647326190e-06  8.2695780332830477e-06  1.1951900544990112e-07  3.0718718858947460e-06  8.0689581415945217e-07  2.0536191174530398e-08  2.3247101275828913e-07  3.3531259093119210e-07  1.7262754828131570e-09  8.9382604593930880e-08  2.0732816088747052e-08  9.1803874993075196e-11  6.7618628702716149e-09  7.3684656661160518e-10  6.5198030205215527e-09  6.4035246540363506e-12  1.5825550099826068e-10  5.6115371311665046e-11  3.3398111779167647e-13  1.4984404170774952e-11  2.6698236867570199e-12  1.6750723893241073e-11  3.2238094164277089e-14  1.2491909549510498e-12  7.7753921821945804e-13  1.7020917121424293e-13  6.2264405584260743e-15  2.6639995508304949e-14  7.9172537184039529e-14  1.8314903860050818e-15  1.3561110489878181e-14  1.4715638969072859e-14  7.1809566906093442e-16  8.8408142019900154e-15  6.6877536320705090e-15  3.4833191835591382e-16  1.5362404526515215e-14  4.1321411664597255e-15  5.1186763202374555e-15  2.8429467056524150e-16  2.4535979751515759e-15  9.6213718143843205e-16  9.5436998125682578e-16  8.0240071421302235e-16  1.1836720513232917e-16  2.0715