<?xml version="1.0"?>
<VTKFile type="UnstructuredGrid"  version="0.1"  >
<UnstructuredGrid>
<Piece  NumberOfPoints="7863" NumberOfCells="15264">
<Points>
<DataArray  type="Float64"  NumberOfComponents="3"  format="ascii">0 0 0  0 1 0  1 1 0  1 0 0  0.25 0.15 0  0.25 0.4 0  0.5 0.4 0  0.5 0.15 0  0.6 0.6 0  0.6 0.85 0  0.75 0.85 0  0.75 0.6 0  0 0.9499999999997918 0  0 0.8999999999995836 0  0 0.8499999999996529 0  0 0.7999999999999998 0  0 0.7500000000003466 0  0 0.7000000000006934 0  0 0.6500000000010401 0  0 0.6000000000013869 0  0 0.5500000000017335 0  0 0.5000000000020587 0  0 0.4500000000018723 0  0 0.4000000000016644 0  0 0.3500000000014564 0  0 0.3000000000012483 0  0 0.2500000000010403 0  0 0.2000000000008322 0  0 0.1500000000006241 0  0 0.100000000000416 0  0 0.05000000000020799 0  0.04999999999989965 0 0  0.09999999999981467 0 0  0.1499999999997036 0 0  0.1999999999995579 0 0  0.2499999999994121 0 0  0.2999999999992664 0 0  0.3499999999991206 0 0  0.3999999999989749 0 0  0.4499999999988292 0 0  0.4999999999986943 0 0  0.5499999999988151 0 0  0.5999999999989468 0 0  0.6499999999990784 0 0  0.69999999999921 0 0  0.7499999999993417 0 0  0.7999999999994734 0 0  0.8499999999996051 0 0  0.8999999999997368 0 0  0.9499999999998684 0 0  1 0.04999999999989965 0  1 0.09999999999981467 0  1 0.1499999999997036 0  1 0.1999999999995579 0  1 0.2499999999994121 0  1 0.2999999999992664 0  1 0.3499999999991206 0  1 0.3999999999989749 0  1 0.4499999999988292 0  1 0.4999999999986943 0  1 0.5499999999988151 0  1 0.5999999999989468 0  1 0.6499999999990784 0  1 0.69999999999921 0  1 0.7499999999993417 0  1 0.7999999999994734 0  1 0.8499999999996051 0  1 0.8999999999997368 0  1 0.9499999999998684 0  0.9499999999997918 1 0  0.8999999999995836 1 0  0.8499999999996529 1 0  0.7999999999999998 1 0  0.7500000000003466 1 0  0.7000000000006934 1 0  0.6500000000010401 1 0  0.6000000000013869 1 0  0.5500000000017335 1 0  0.5000000000020587 1 0  0.4500000000018723 1 0  0.4000000000016644 1 0  0.3500000000014564 1 0  0.3000000000012483 1 0  0.2500000000010403 1 0  0.2000000000008322 1 0  0.1500000000006241 1 0  0.100000000000416 1 0  0.05000000000020799 1 0  0.25 0.3500000000002234 0  0.25 0.3000000000004466 0  0.25 0.2500000000006611 0  0.25 0.2000000000003316 0  0.2999999999999999 0.15 0  0.3499999999999999 0.15 0  0.3999999999999999 0.15 0  0.45 0.15 0  0.5 0.2000000000000022 0  0.5 0.2500000000000046 0  0.5 0.3000000000000067 0  0.5 0.3500000000000087 0  0.4500000000000001 0.4 0  0.4000000000000001 0.4 0  0.3500000000000001 0.4 0  0.3 0.4 0  0.6 0.6499999999999999 0  0.6 0.6999999999999998 0  0.6 0.7499999999999999 0  0.6 0.7999999999999999 0  0.75 0.8 0  0.75 0.7500000000000001 0  0.75 0.7000000000000001 0  0.75 0.65 0  0.7000000000000145 0.6 0  0.649999999999899 0.6 0  0.6499999999996818 0.85 0  0.6999999999997106 0.85 0  0.2987828851411449 0.699325350601735 0  0.7568105424598444 0.2773422776226307 0  0.1795454545455548 0.565909090909074 0  0.8224999999997471 0.4374999999996759 0  0.4210672245123 0.8298112703689309 0  0.1704342645355456 0.817589228320629 0  0.4288291996927651 0.5807253322680467 0  0.6700168933784714 0.4454283174013861 0  0.8465566460363076 0.1536642418117631 0  0.6487495650826139 0.1583009537413474 0  0.1302432088118011 0.6870436331969506 0  0.4678571428571685 0.6999999999999645 0  0.3001247914658854 0.8712026118102825 0  0.3037919960474855 0.5294342885375104 0  0.130623183832229 0.4401092867706953 0  0.8659552483879646 0.3224251422433174 0  0.8736312978505528 0.5612537349962974 0  0.6245633418427496 0.3030766659003465 0  0.1250000000000379 0.2750000000005539 0  0.8734358317010626 0.8762010003539712 0  0.1254835060363831 0.1258252413885224 0  0.8749999999999343 0.7250000000000005 0  0.5181687217833718 0.5314910246240141 0  0.7500000000000194 0.1068693693694355 0  0.5185460717145034 0.8908201301560481 0  0.1043949820060815 0.9055901675413394 0  0.7472304391142466 0.4937115169957552 0  0.7437057827977005 0.3796800519519853 0  0.5837666239123878 0.0953941305957148 0  0.902362942345899 0.2218145421277327 0  0.1069592086353165 0.6081316226431639 0  0.5943281866118556 0.2221187317759835 0  0.09231256724200733 0.7788120293054371 0  0.2599118360316645 0.613680451156976 0  0.386610176029564 0.6631887582313238 0  0.2537946126497011 0.7917216350769677 0  0.9088286731471231 0.4704266021303271 0  0.5063995803351647 0.6198623457584774 0  0.3860058725664629 0.914148551469585 0  0.5069733898137954 0.7690591741519245 0  0.2189083152479363 0.9142871916137685 0  0.09240943628007152 0.353587386157095 0  0.3923666487137664 0.4973261685045393 0  0.9117702211709445 0.6463336145912728 0  0.2237945603996098 0.4867857348645567 0  0.9161970975027582 0.08252283236527229 0  0.3461519581374356 0.7752338663700789 0  0.6110313179874225 0.5139303735626758 0  0.08254453868152074 0.5295949336450964 0  0.5783651695896583 0.387014424669225 0  0.7680988053275425 0.1909346846843861 0  0.9202288100287571 0.8014462386955867 0  0.08317821648800833 0.2045345244679453 0  0.6743674448775834 0.2381773292297286 0  0.8014729691714902 0.9151682085422 0  0.1982142857142988 0.08392857142857235 0  0.9156947390731955 0.3830592165702195 0  0.2099925163896727 0.7117346125224077 0  0.8288873197852951 0.7991354001759553 0  0.1710420590992359 0.2009730661079498 0  0.8302601404977216 0.6362505489697606 0  0.8278972189280196 0.2432708264037497 0  0.1724373447570453 0.3750000000001119 0  0.8263815004216721 0.07675344797416643 0  0.6734552612001731 0.07775097080953899 0  0.6322765317037635 0.9278922409848336 0  0.3328795603068665 0.07550965653377333 0  0.4218141641894588 0.07552083333321569 0  0.7202413378918148 0.9252992098071467 0  0.3398398570642138 0.5956195883200471 0  0.1876245270259333 0.6393374142670434 0  0.5053993339633923 0.07647011170888637 0  0.0718750000000897 0.07187499999995482 0  0.9281249999999797 0.9281249999999464 0  0.4615331046556409 0.4767930683020147 0  0.8132809042322462 0.3596726603183649 0  0.8134265276406807 0.5108303348297808 0  0.4201515737436131 0.7514965833054841 0  0.9273040324515954 0.1585949917491647 0  0.06708721766401626 0.6750163115727243 0  0.56422475897686 0.4552131930394481 0  0.6791346043894576 0.5327473050102175 0  0.697255269395278 0.3214473484424947 0  0.2802981881263434 0.9339285714286927 0  0.5339285714285894 0.6802981881261965 0  0.1655838508805648 0.7568246324058057 0  0.07055580426794442 0.4304123740962421 0  0.3226088857382223 0.4646105576694787 0  0.5680970217443936 0.1590416415060358 0  0.4428489297902234 0.9319457679008186 0  0.9477157065683794 0.5858496809090185 0  0.9359768099749814 0.2904579204473128 0  0.1742846135096847 0.3003953810640202 0  0.06918270446438632 0.8409433163409716 0  0.8252358436657874 0.6976195482341206 0  0.5635633234700967 0.284788731469481 0  0.5521945854607904 0.9257613588772547 0  0.3635427058143873 0.8407659882482055 0  0.4499814782289108 0.6338364401188512 0  0.2390953482890149 0.8431241519968201 0  0.1517067680066363 0.9343448395931244 0  0.06539387153795677 0.3019693576901929 0  0.2575632692678596 0.06394502601111231 0  0.6555411638130636 0.3716910457745546 0  0.1608726846099766 0.5049389228359271 0  0.934949728583427 0.6997486429173009 0  0.2433845767894122 0.5499237975678901 0  0.939237790491481 0.8554484180187727 0  0.0630223880597205 0.1401119402987738 0  0.1348958333334102 0.06197916666672756 0  0.865104166666832 0.9380208333335958 0  0.7604230740984012 0.4373799400890658 0  0.5372647219903939 0.8402823937523813 0  0.1923510154511563 0.1420055354945893 0  0.8075445196362099 0.857996515152053 0  0.1885591087578553 0.4337380820533954 0  0.7105225609509752 0.1526657632181078 0  0.3666090240151971 0.7062960373879834 0  0.7966936723524515 0.3163062291281787 0  0.5508714508660905 0.570011516337836 0  0.4721626247170084 0.554486293857005 0  0.8002707048946301 0.5730607189697422 0  0.06641773621617075 0.9351618371252797 0  0.3665814154358935 0.5517819541861106 0  0.05442204514635005 0.7231523959702606 0  0.6284828997490257 0.05004553457671893 0  0.9398712002144101 0.5109326544100544 0  0.5433787542275291 0.7375061851781469 0  0.3375061851783711 0.9433787542277096 0  0.7215297270911555 0.05410988042852424 0  0.4797837765982246 0.8425479205787176 0  0.04271365523339227 0.5671101206092209 0  0.8714625424823598 0.3953934577117953 0  0.1490428061304692 0.875151828016147 0  0.2781199925553454 0.4510243744904079 0  0.5565677762207972 0.3450127136714147 0  0.1940357533673813 0.2535689772727561 0  0.3766403934953488 0.04740981637292114 0  0.2545866346220484 0.6725938042819365 0  0.3074605043080991 0.8017072464925095 0  0.8056636005117194 0.7469721857454302 0  0.1269450100636947 0.56224828215199 0  0.05350185589295817 0.249017632611271 0  0.674777132742694 0.8963085370316726 0  0.5117683592953793 0.4496907486941994 0  0.1169833904185793 0.8254360225452316 0  0.04504201214567945 0.4768561077888308 0  0.3055599085954928 0.6382433889748717 0  0.9450727948239286 0.7538737512009489 0  0.4306417842714623 0.8796919592677241 0  0.7923856483923215 0.141724914569402 0  0.8728297214303689 0.04978308383419468 0  0.9486377781753648 0.4273242585722439 0  0.437541018947418 0.5220595462426839 0  0.9484027151197005 0.346539625994936 0  0.7281038251562784 0.2284601524070051 0  0.8668606734410613 0.6709737204112667 0  0.690214514677936 0.4804244848868111 0  0.8493847380621981 0.4812225068388546 0  0.1333737946122648 0.326539344567937 0  0.7219350493285639 0.5495541898924469 0  0.6750000000008667 0.9530034763360794 0  0.6303201059992649 0.106643697324949 0  0.7119144016103087 0.4146430422909549 0  0.3761225040737161 0.1044665480092788 0  0.1419061815543131 0.6445935072656427 0  0.5010710576848406 0.9417334264593 0  0.8586198319213173 0.207759071572462 0  0.9472598698250957 0.05274013017491718 0  0.2988553637576897 0.7535345997678686 0  0.7805552894816058 0.05315972730291021 0  0.4120655818059855 0.7045889958912197 0  0.7495113277877659 0.3294098108501303 0  0.6308381164613092 0.2525569635330791 0  0.05405789668501901 0.6246
[...]
<PointData  Scalars="f_504570"> 
<DataArray  type="Float64"  Name="f_504570"  format="ascii">9.7326028595029890e-01  -1.2671968708511164e-01  1.0469648587317304e+00  -6.4628482003537088e-02  7.3856460848596461e-01  3.9193447141111315e-01  4.7107280760347930e-01  3.3854545740032777e-01  8.2739297400282596e-01  7.2619773996808812e-01  7.4261608307570226e-01  3.6380815361461738e-01  -5.5475517551163187e-02  6.3800545181698684e-02  2.5459909021062166e-01  4.7206502224969071e-01  5.7478543592658493e-01  6.0537070136231830e-01  6.3071430093887426e-01  6.4278386735209425e-01  6.0153973166586039e-01  4.9802178232986449e-01  3.8001842969667010e-01  3.1670994856335710e-01  3.3005643876610380e-01  3.9195330842621723e-01  4.5904620690472731e-01  5.0349156239286719e-01  5.8731779416791907e-01  7.7839979052545960e-01  9.9856889792587578e-01  9.3174840034377826e-01  5.1160400093720138e-01  8.4987049412721283e-02  9.6691397462839671e-03  4.6962668193498674e-01  1.0133601471290195e+00  8.2563284235341394e-01  1.3646977937522783e-01  -9.8114457444935008e-02  4.4598412535755522e-01  1.0259218456411152e+00  8.4658561515016928e-01  1.4875186818381830e-01  -6.0721998304751008e-02  5.1983040372919387e-01  9.9137338779577266e-01  7.9365432264495461e-01  3.1880853774763490e-01  7.1717496150997470e-03  8.2218708646811869e-03  1.1542393863793995e-01  2.7945670094920033e-01  4.3430767007482107e-01  4.8952295382367578e-01  5.0654415539506825e-01  5.3831294141578645e-01  5.5588836775103867e-01  5.2516577278276466e-01  4.5940606569315323e-01  4.0239785826789659e-01  3.8938494137917784e-01  4.0809823020694735e-01  4.4826256942075571e-01  4.8380042651023891e-01  4.8909167477855225e-01  5.4342156897394156e-01  7.5225076357916043e-01  1.0397742576696059e+00  1.0068946421206553e+00  5.2256143114191889e-01  -2.8366199046064695e-03  -1.6842867440052773e-02  5.2426321672331244e-01  9.7787494478747683e-01  7.8433786030862818e-01  1.7912454638551939e-01  -6.2584187392848309e-02  3.6090213946800614e-01  9.3225384131804168e-01  7.9482112982007447e-01  1.5106954795515926e-01  -4.6329905991375667e-02  5.0666271193534418e-01  9.4779694114593382e-01  8.0523275017656137e-01  3.6548160015763376e-01  -5.7465045988634974e-03  1.9375211427284816e-01  4.0183696548181401e-02  4.4283297646329001e-01  7.9377066631337956e-01  3.7707450916606255e-01  2.8091885630298757e-01  5.5086215567782926e-01  6.8760757350943602e-01  9.0862771814242502e-02  4.4722160399913041e-01  8.6371517679305632e-01  7.3460261495582324e-01  9.9110407662793887e-01  7.9969665402525858e-01  8.4650581026029278e-02  -1.2719014349062811e-02  1.9233769904916034e-01  -8.7669833478464881e-02  4.7500896404236270e-01  1.1452110561616893e+00  7.0329609551925476e-01  3.9308579216360995e-01  1.5531688205717276e-01  3.2099776267726110e-01  -1.1136936373603910e-01  7.5172971287239682e-02  4.2677693547280726e-01  5.0561798953201365e-01  -7.7109160854438474e-02  4.4648898446327090e-01  -1.0199250905450687e-01  -4.7943872849239795e-02  2.0128897744411059e-01  3.0376181296795235e-01  -4.4194199840257194e-02  1.0408502029872999e+00  4.4695184037375812e-01  6.2640585095355006e-01  6.6301893608144991e-01  9.2424019617965736e-01  5.2969857733004932e-01  9.5097331124956186e-01  6.6638265238648275e-01  7.3342918374449817e-01  6.8887946230200769e-01  6.5027614493201435e-01  4.1739068855516942e-01  3.8375393401153068e-01  4.1906039449820398e-01  3.6186769336742675e-01  7.4634744118760266e-01  5.7652246778249217e-01  3.7790883626324973e-01  4.8468823186737564e-01  7.6338985234034062e-01  4.3307411151627528e-01  6.8760109433181205e-01  3.8317333438605494e-01  4.6191837735802282e-01  3.5663439135533925e-01  4.5864506846167391e-01  4.3047883727594016e-01  6.0886496839853310e-01  4.5383552994158310e-01  4.8422374257257983e-01  5.8076844810261896e-01  6.1450301347763725e-01  3.8171669280051768e-01  7.3217907840187624e-01  4.1959371352923869e-01  4.8949954239413823e-01  4.3383598430786163e-01  8.0376370211282799e-01  3.6799664902646673e-01  6.5557659706034355e-01  5.2849073501265720e-01  5.5285053291812758e-01  3.0225025377532883e-01  3.7259577177991932e-01  5.0668976005309108e-01  5.3526675179804539e-01  5.7500529185010285e-01  4.3851281161456557e-01  4.2753790483587767e-01  5.7664386754255359e-01  1.0080777266906689e+00  8.6709154166146607e-01  8.2823095942616975e-01  3.9895420728044351e-01  4.7240720942623204e-01  5.0889388878432718e-01  8.6077603725148899e-01  9.8813661757237506e-02  4.7026032961325143e-01  6.7811255600513276e-01  1.7898199029045106e-01  7.7233654839277144e-01  7.8160149727470551e-01  7.6189535919029661e-01  5.4652933308383067e-01  7.0776208942481245e-01  6.8990241822268283e-01  8.5466997409877665e-01  7.2134156122856286e-01  5.9888375892209333e-01  6.3887345424656772e-01  5.4607643144013474e-01  6.0540656389648440e-01  -7.5609212601471409e-02  1.4087871330237947e-01  -3.3210947863369117e-02  8.1197554019619506e-02  -3.9169421254807530e-03  3.5542128128328843e-01  3.8020355737802991e-01  8.9255743471789703e-02  1.8873113047665749e-01  1.0306937169055719e+00  3.9560615408368494e-01  5.2432026281721966e-01  8.2859559594067753e-02  5.2874894936811667e-01  1.8973551192680398e-03  9.1558743148901434e-01  1.6383406668531642e-01  5.2395683610204857e-01  5.9516173194112520e-01  6.2056799964828668e-01  8.6694852308928616e-01  3.9717460423323830e-01  6.8728161325102022e-01  4.8772669447762229e-01  3.4012018571022462e-01  4.0662071459070359e-01  5.1819541295951188e-01  4.3787068480779656e-01  5.0592517084960187e-01  2.9602113958551363e-01  2.7436615494583810e-01  4.2475842773774647e-01  7.0551164295901891e-01  7.6728169264867019e-01  7.7180225889266751e-01  9.0185850182630578e-01  7.0908111564506116e-01  5.4669215073140132e-01  1.1266167570851298e+00  1.1465404101279160e+00  1.7056669374211100e-02  8.3464270582411426e-01  2.2026264538171500e-01  5.8762708820955067e-01  6.3397635450155165e-01  4.8727752041605737e-01  4.5953904179639116e-01  3.0449613529109704e-01  5.8899680159682936e-02  1.0695756692093594e-01  2.4731397185674192e-01  6.8188395066884111e-01  4.2285799644167993e-01  6.1052207299768313e-01  2.0020571033283568e-01  9.3605735341653673e-01  4.2623548653519006e-01  4.5239004520026760e-01  5.2259630286807135e-01  6.9341287236320859e-01  3.9999027616499300e-01  2.7072199304315664e-01  4.7830970105222897e-01  6.0518025793455854e-01  2.7624814334934100e-01  4.9809663095878903e-01  4.7221016573571772e-01  3.0487929450341095e-01  4.7673144643141652e-01  5.3126807005928212e-01  5.5604899514020589e-01  6.9080617975143654e-01  5.9850584898915238e-01  1.5974871784184660e-01  5.9301890282275171e-01  3.2199053550010875e-01  2.9556936175475135e-01  8.4466885079141707e-01  2.0940027286395285e-01  3.5351717132490079e-01  1.5605786680096748e-01  8.6037711822900986e-01  4.4515210454891779e-01  8.5166573610893348e-01  3.7069804455018779e-01  6.7753739146388714e-01  5.1997742798813695e-01  1.9214306518997568e-01  1.3314846576142716e-01  2.9869858452005754e-01  7.6084612917693462e-01  1.0537664530880997e+00  4.9787523982609688e-01  7.3724995873111010e-01  6.8120533434681196e-01  2.2699378454111629e-01  2.5977203870464344e-01  3.9231346151126278e-01  9.8777000098493706e-01  1.0304456830184636e+00  6.5762263491953332e-01  4.0673788066968519e-01  3.9677473094135635e-01  4.3805701724158963e-01  3.2319462620984912e-01  5.2041500754169334e-01  5.6922902063301173e-01  5.4698432560496635e-01  3.9226614053411879e-01  2.8181822813754198e-01  6.7732936706100055e-01  3.5462505114087323e-01  6.5900364887452012e-01  6.3028069271408649e-01  6.4357976248772863e-01  4.3384607470349429e-01  6.6477122865095717e-01  6.6344984785865524e-01  1.6720535074552936e-01  3.7684148533140416e-01  2.2021490328291052e-01  4.6720555138697334e-01  9.4108985848631088e-01  1.2213797437451350e-01  3.1039360657836307e-01  6.3768671237783736e-01  4.8781511194759591e-01  6.5931967469843822e-01  6.2809182658198359e-01  9.2832380581387242e-01  3.5430746060323548e-01  -1.9743782479188895e-02  3.9154040049934180e-01  6.8189276926334308e-01  9.9264323440852154e-01  3.0861291130845930e-01  2.2456264944525080e-02  4.7219672435890597e-01  8.3852499610013856e-02  1.2073310274797699e-01  2.0321621436869877e-01  1.2935826828101746e-01  2.2721740722995343e-01  8.9969257036487627e-01  6.6469492563946331e-01  5.6699717760259227e-01  7.4824207609673254e-01  7.1174739391928465e-01  3.5186889548293993e-01  4.6849436920344206e-01  7.5883889868671794e-01  4.8348145971506978e-01  5.2247409694546443e-01  1.7553413597043344e-01  4.7460777619709943e-01  7.4297185192981130e-01  4.9787155448006404e-01  6.0736687644948761e-01  7.0341030277963401e-01  3.0745774765205119e-01  4.7538898264193113e-01  2.5698758372888225e-01  2.4548635210919190e-01  1.1895320830265357e+00  3.6413123314492596e-01  7.8268576055006756e-02  4.1521783275310642e-01  5.3193246279246953e-01  2.2381843281306157e-01  8.7861034638833735e-01  9.1275121494320666e-01  5.2940980599269916e-01  5.3002959799594862e-01  6.4968309748633424e-01  1.2981185644068624e-01  7.7383476156609496e-02  4.9551141178402874e-01  3.5375978767469574e-01  1.1027184994713682e-01  5.6942099475576879e-01  6.1319761141046480e-01  1.5676704755767629e-01  1.8996642536464090e-01  5.5069090327892545e-01  4.0174520182287776e-01  9.5566063321350259e-01  3.7599224349814148e-01  3.7942631764996337e-01  2.1119913305624705e-01  7.4961990952840185e-01  7.0876703235667027e-01  1.0176400587703298e+00  1.0631462596920376e+00  9.9970862222579582e-01  -3.0068286856096249e-02  4.1251795330306323e-01  9.2473939460297094e-01  5.3031335997995899e-01  5.4150131407133073e-01  8.1672187784519334e-01  3.5773064609161337e-01  4.5904766365332011e-01  5.1967011450621126e-01  -1.8108750077262263e-03  7.4382598851283821e-01  5.2130673905369196e-01  4.7145857644940636e-01  5.6179923085895300e-01  5.6709514815269990e-01  4.2288435579110223e-01  6.8579455281645696e-01  5.4006978621430313e-01  4.2383004321360607e-01  4.6029968160817414e-01  3.9123317412056596e-01  8.9433813504704285e-01  9.6930499284209259e-01  6.9655170009312040e-01  9.8029950505275243e-01  2.8920571421147240e-01  4.6756022478171411e-01  4.0530276700268669e-01  3.6295030515996746e-01  9.9961766148893549e-01  9.6124409661680787e-01  5.7990159726896667e-02  5.1975568280587181e-01  4.9642420639718254e-01  3.7264139836805871e-01  6.3724182065156665e-01  6.8749345213830870e-01  1.0370315753527031e+00  8.5401222238094943e-01  5.3239292095848612e-01  5.5193287925545897e-01  9.1130082301588033e-01  3.3813127341546517e-01  7.1094785304217545e-01  1.0072648533539486e+00  7.2650987021781144e-01  5.9835764857270424e-01  4.6494439081178873e-01  7.6456922640777381e-01  7.1066533481783789e-01  6.7173329275282953e-02  5.0266374835919458e-01  1.0435552682236120e+00  4.7134675817027544e-01  4.3970752465735552e-01  7.6624837001510693e-01  6.1338352970382493e-01  5.0869990301219581e-01  4.5698469592585339e-01  7.0700613712933202e-01  4.7683970703431683e-01  1.8777177223667432e-01  1.0207782409295538e+00  7.2586947653394684e-01  6.2059556362350521e-01  -8.4531914687661219e-02  4.7982057825989216e-01  1.0920553492163691e-01  1.3167555483103829e-01  5.1151554878232153e-01  2.8299280145032563e-01  5.8404155099459198e-01  6.7525124451491947e-01  3.7951243288564085e-01  -7.1533920716128296e-02  1.6505257223098477e-01  4.3696364257288950e-01  1.0779111858824597e+00  4.9402609552719512e-01  1.1023659673630206e+00  4.2510009500895385e-01  8.5489014392091289e-01  3.5823625947279653e-01  4.5767705229551259e-01  5.1415486749755845e-01  -3.3173157514681875e-02  7.2627404309991528e-01  8.5441531209358190e-01  4.2105253733810488e-01  4.7857325928576983e-01  4.4881031315202813e-01  1.9023483771418570e-01  8.3965563035578294e-01  5.6446909434678838e-01  1.0874116992904563e+00  1.0385411314529354e+00  3.6323241613203505e-01  -4.7554117310665160e-02  4.1495059563430520e-01  8.3761165341233879e-01  7.5127502901957888e-01  1.4709659108404671e-01  5.0076307036583312e-01  4.5401771280015984e-01  3.4060914380399676e-01  7.4576523619319060e-02  4.4670194983002717e-02  2.0938419187819052e-01  1.1835561145210417e-01  8.9968924049111787e-01  2.0807006378837944e-01  5.7679711298164138e-01  6.0058753387360064e-01  8.3852819143904661e-02  4.3229720269274646e-01  4.8643318246230122e-01  1.1159503506964394e-01  8.5862396923816431e-01  4.7092604704968971e-01  2.7940203057081098e-01  4.9441064710576488e-01  6.3208051361035777e-01  6.2164028243225666e-01  8.9150953961467305e-01  5.6536737635131507e-01  1.2638701280030290e-01  7.6166347949899027e-01  8.6607148378380794e-02  2.9894068071727642e-01  5.2540986544294699e-01  4.1478066931244723e-01  6.3132119547444210e-01  -1.1828151855253556e-02  4.7171344419987893e-01  6.7499509769006250e-01  6.7960943792371353e-01  -4.1346170584538877e-02  -8.2186624394565283e-02  2.2200121062725167e-01  2.1508574895454832e-01  5.0604770310772951e-01  1.0904422400746139e+00  6.5687329460554100e-01  4.9662800114864897e-01  1.0370530953962227e+00  1.0238402432903835e+00  1.0971782793629123e+00  -1.1068924952058354e-01  -1.0383729004969093e-01  -1.1445669992498732e-01  1.1056756136490351e+00  1.1029648910276111e+00  1.1724731472945493e+00  -5.1103588908889996e-02  -4.2844707860455723e-02  -5.6152402450668361e-02  8.1504208376306464e-01  5.3207163177966477e-01  8.3745249664784471e-01  6.5273218481846007e-01  7.4519562659360805e-01  8.7255262667355127e-01  3.5158109031805851e-01  1.6209022933414868e-01  2.6813441699625568e-01  4.8041373225717676e-01  5.0043454126444142e-01  5.1475311948653735e-01  8.3924853085736606e-01  3.9692819196868079e-01  2.1332884675871247e-01  7.2722083891277567e-01  3.9281977770592374e-01  5.7840923532340205e-01  8.8492241716986192e-02  3.7698981193299208e-01  1.5426336401150667e-01  4.7225667766774254e-01  4.9424028533945613e-01  5.0929090710200497e-01  1.0394875207208203e+00  6.7138551535468349e-01  7.5076362110522876e-01  1.0045021932448714e+00  1.0808162776900558e+00  4.7950067962813037e-01  6.8553493285149980e-01  5.1808863275940742e-01  4.9158369170974997e-01  9.9496478190013893e-01  7.5838534421235226e-01  6.0291938944711332e-01  8.2845325621771948e-01  7.5822470281269649e-01  8.3409491591019658e-01  6.9959315045063586e-01  4.1380230940278190e-01  6.0153957606916671e-02  5.8496680045840721e-01  1.9521084246902337e-01  5.1007057823238311e-01  4.9820221666782771e-01  2.9997596323927921e-03  -6.2408951932312273e-02  -1.5908455755488767e-02  1.4512835528090218e-01  1.2417653953555842e-01  4.2959801456102453e-02  3.7248498526914475e-01  2.2683146411965047e-01  3.4948166747482029e-01  5.3846406233913646e-01  5.6472507574726649e-01  4.6990624477759646e-01  5.9318980412327693e-01  6.4906593125942569e-01  6.1508395615023570e-01  6.1739343055000950e-01  6.5849538139346009e-01  6.5243742666021487e-01  6.4092648540929520e-01  6.9557524213843724e-01  6.6595411985268904e-01  6.3065962594891256e-01  6.8938246014160698e-01  7.0268575333560646e-01  5.5597733277070838e-01  6.6440868705734735e-01  6.2191946976904600e-01  4.3593163792651501e-01  5.0511282312641126e-01  5.6441750437851423e-01  3.3878473717381113e-01  4.3750781411783279e-01  3.8087668872327390e-01  3.1485750025660997e-01  3.3157128320471202e-01  3.4476684992646944e-01  3.5736527642511851e-01  3.3479504121995202e-01  3.5588594669262569e-01  4.2719863797598584e-01  3.8830761095669791e-01  4.2740596606561587e-01  4.8208085374364679e-01  4.8738702834278674e-01  4.6443425664264776e-01  5.0147693001341087e-01  5.3397673107522847e-01  5.4072870956092023e-01  5.2312120812948193e-01  6.6824462170084320e-01  6.0632516445239759e-01  5.7475828425982411e-01  6.9481570402967396e-01  9.0086888744709659e-01  8.1258408053568942e-01  9.4686774341238045e-01  1.0688576677277446e+00  7.4617266676039506e-01  1.0207254421532672e+00  8.0381314787363978e-01  2.7666987707361257e-01  5.5682105648524916e-01  -1.4918063402755132e-02  1.9200111164434855e-01  5.3923790855056164e-02  3.1341794809370632e-01  1.8044818733801860e-01  2.5181525398125924e-02  9.1518619191426148e-02  7.9290669112135537e-01  5.9208714581613808e-01  3.1259068192109496e-01  8.1792486426027711e-01  1.0225208695448575e+00  1.0344558553427812e+00  1.0749359521859545e+00  4.8727779099133139e-01  6.8012671562819382e-01  9.2811093811899914e-01  -8.6461374541952185e-02  3.2631086340622234e-01  2.8688867392268894e-02  1.0624020183545262e-01  -4.1083702432589850e-04  -9.9966342363541280e-02  7.9339299334679692e-01  2.6905631608291170e-01  5.9412859243628924e-01  1.0435804875819850e+00  1.0765904348903645e+00  9.3023568783001542e-01  1.1214853843427723e+00  5.0374891916362519e-01  7.1229220063024423e-01  9.7935269579986017e-01  -6.8336093616775270e-02  3.3172748161909044e-01  3.2672178197223359e-02  1.6982278002213944e-01  1.3721540537474717e-02  -9.1038918779632522e-02  8.3269179898974222e-01  3.0106091452808992e-01  7.1691548178049003e-01  9.6325677405878440e-01  9.6532646981441061e-01  1.0486077912292999e+00  5.5441467379313902e-01  7.6708398928513566e-01  9.5004390688257634e-01  1.3046891469451199e-01  5.2063190699279371e-01  3.2375778684262185e-01  5.9254527722055882e-02  1.3469287056473617e-01  -1.3177435532025428e-02  6.0121935086909037e-02  4.0987393532734652e-02  5.5362035011680154e-02  -8.0389243417306293e-03  1.8908818553522899e-01  1.7509020935829797e-01  1.0923930101209037e-01  3.6753420983255997e-01  2.6855100502169338e-01  3.6597856534863876e-01  4.7286493325980389e-01  5.1366124807597224e-01  4.5051037962423751e-01  4.9747303455671377e-01  5.3455074858704776e-01  5.3282277242031018e-01  5.2101648657090993e-01  5.3847940911091030e-01  5.4790587458046947e-01  5.5114761134200319e-01  5.8500799741407195e-01  5.9019144747777019e-01  5.6430997951601380e-01  5.4753595625361418e-01  6.0045309692976223e-01  5.9846135156267211e-01  4.9331378776675217e-01  5.7994759117315342e-01  5.4702885812498847e-01  4.2580779960712989e-01  4.7537490546556677e-01  5.0760138681525402e-01  4.4849716459377781e-01  3.9076054867508581e-01  4.2229316831790797e-01  3.9530136720931530e-01  4.0305031158752624e-01  4.0682399412969300e-01  4.0892002914840991e-01  4.2675861965022927e-01  4.1587933580427205e-01  4.2986041077781240e-01  4.6805144089821221e-01  4.5007226631720110e-01  4.7644449010120871e-01  4.8772354032185999e-01  5.0107638698460943e-01  4.9682523725508010e-01  5.1012420227365385e-01  5.0164361710520167e-01  5.1222986032192719e-01  5.1135814419041270e-01  6.2414442520571023e-01  5.4149040407267091e-01  5.2873834254438901e-01  6.4207632146969684e-01  9.0615978288183241e-01  7.8014949582720616e-01  9.4949935546942765e-01  1.1152535208326910e+00  8.0164614335899553e-01  1.0924011332654675e+00  8.5571451271183085e-01  2.2968901388441865e-01  5.6900884630997139e-01  -9.3908774215354082e-02  1.3703362527779447e-01  -2.4643601606237873e-02  2.7417672544039817e-01  2.1418481881213369e-01  1.7430449747457352e-01  -2.4566256389203803e-02  8.0909518388892265e-01  4.5710240283825287e-01  7.0773389787785523e-01  9.7053272260881640e-01  1.0122534746234797e+00  9.4586844319849295e-01  4.8440136760183461e-01  9.1031121697640704e-01  6.9030270001364802e-01  -2.6218841971334773e-02  1.3008764015388841e-01  3.6861118349674599e-01  7.7635450516299720e-02  -2.7916715692459838e-02  -2.1931226173416977e-02  6.9447826448270000e-01  4.4555009007827789e-01  6.3763970182663243e-01  1.7296016895406302e-01  9.6605191254795930e-01  9.3699291403708873e-01  1.0361337421250851e+00  4.8056963415220161e-01  8.9179499473153734e-01  6.7137678249149080e-01  1.0051226984275603e+00  -5.6462631584782583e-02  1.0255653005505784e-01  3.0716971806199656e-01  -2.9562582927537679e-02  1.8229543250615970e-01  4.5903156403558860e-02  -6.8689307832561844e-02  7.9632479659955746e-01  6.1941537592125762e-01  3.4816782174519595e-01  9.3915680359169584e-01  8.9491761279489690e-01  1.0153290802714428e+00  5.9568947331682542e-01  8.9651543526751509e-01  7.0106600817463893e-01  9.7993273118459956e-01  1.5668093047607365e-01  4.6024521238578497e-01  2.8260987479556249e-01  -3.3202272388952903e-02  8.3