<?xml version="1.0"?>
<VTKFile type="UnstructuredGrid"  version="0.1"  >
<UnstructuredGrid>
<Piece  NumberOfPoints="7863" NumberOfCells="15264">
<Points>
<DataArray  type="Float64"  NumberOfComponents="3"  format="ascii">0 0 0  0 1 0  1 1 0  1 0 0  0.25 0.15 0  0.25 0.4 0  0.5 0.4 0  0.5 0.15 0  0.6 0.6 0  0.6 0.85 0  0.75 0.85 0  0.75 0.6 0  0 0.9499999999997918 0  0 0.8999999999995836 0  0 0.8499999999996529 0  0 0.7999999999999998 0  0 0.7500000000003466 0  0 0.7000000000006934 0  0 0.6500000000010401 0  0 0.6000000000013869 0  0 0.5500000000017335 0  0 0.5000000000020587 0  0 0.4500000000018723 0  0 0.4000000000016644 0  0 0.3500000000014564 0  0 0.3000000000012483 0  0 0.2500000000010403 0  0 0.2000000000008322 0  0 0.1500000000006241 0  0 0.100000000000416 0  0 0.05000000000020799 0  0.04999999999989965 0 0  0.09999999999981467 0 0  0.1499999999997036 0 0  0.1999999999995579 0 0  0.2499999999994121 0 0  0.2999999999992664 0 0  0.3499999999991206 0 0  0.3999999999989749 0 0  0.4499999999988292 0 0  0.4999999999986943 0 0  0.5499999999988151 0 0  0.5999999999989468 0 0  0.6499999999990784 0 0  0.69999999999921 0 0  0.7499999999993417 0 0  0.7999999999994734 0 0  0.8499999999996051 0 0  0.8999999999997368 0 0  0.9499999999998684 0 0  1 0.04999999999989965 0  1 0.09999999999981467 0  1 0.1499999999997036 0  1 0.1999999999995579 0  1 0.2499999999994121 0  1 0.2999999999992664 0  1 0.3499999999991206 0  1 0.3999999999989749 0  1 0.4499999999988292 0  1 0.4999999999986943 0  1 0.5499999999988151 0  1 0.5999999999989468 0  1 0.6499999999990784 0  1 0.69999999999921 0  1 0.7499999999993417 0  1 0.7999999999994734 0  1 0.8499999999996051 0  1 0.8999999999997368 0  1 0.9499999999998684 0  0.9499999999997918 1 0  0.8999999999995836 1 0  0.8499999999996529 1 0  0.7999999999999998 1 0  0.7500000000003466 1 0  0.7000000000006934 1 0  0.6500000000010401 1 0  0.6000000000013869 1 0  0.5500000000017335 1 0  0.5000000000020587 1 0  0.4500000000018723 1 0  0.4000000000016644 1 0  0.3500000000014564 1 0  0.3000000000012483 1 0  0.2500000000010403 1 0  0.2000000000008322 1 0  0.1500000000006241 1 0  0.100000000000416 1 0  0.05000000000020799 1 0  0.25 0.3500000000002234 0  0.25 0.3000000000004466 0  0.25 0.2500000000006611 0  0.25 0.2000000000003316 0  0.2999999999999999 0.15 0  0.3499999999999999 0.15 0  0.3999999999999999 0.15 0  0.45 0.15 0  0.5 0.2000000000000022 0  0.5 0.2500000000000046 0  0.5 0.3000000000000067 0  0.5 0.3500000000000087 0  0.4500000000000001 0.4 0  0.4000000000000001 0.4 0  0.3500000000000001 0.4 0  0.3 0.4 0  0.6 0.6499999999999999 0  0.6 0.6999999999999998 0  0.6 0.7499999999999999 0  0.6 0.7999999999999999 0  0.75 0.8 0  0.75 0.7500000000000001 0  0.75 0.7000000000000001 0  0.75 0.65 0  0.7000000000000145 0.6 0  0.649999999999899 0.6 0  0.6499999999996818 0.85 0  0.6999999999997106 0.85 0  0.2987828851411449 0.699325350601735 0  0.7568105424598444 0.2773422776226307 0  0.1795454545455548 0.565909090909074 0  0.8224999999997471 0.4374999999996759 0  0.4210672245123 0.8298112703689309 0  0.1704342645355456 0.817589228320629 0  0.4288291996927651 0.5807253322680467 0  0.6700168933784714 0.4454283174013861 0  0.8465566460363076 0.1536642418117631 0  0.6487495650826139 0.1583009537413474 0  0.1302432088118011 0.6870436331969506 0  0.4678571428571685 0.6999999999999645 0  0.3001247914658854 0.8712026118102825 0  0.3037919960474855 0.5294342885375104 0  0.130623183832229 0.4401092867706953 0  0.8659552483879646 0.3224251422433174 0  0.8736312978505528 0.5612537349962974 0  0.6245633418427496 0.3030766659003465 0  0.1250000000000379 0.2750000000005539 0  0.8734358317010626 0.8762010003539712 0  0.1254835060363831 0.1258252413885224 0  0.8749999999999343 0.7250000000000005 0  0.5181687217833718 0.5314910246240141 0  0.7500000000000194 0.1068693693694355 0  0.5185460717145034 0.8908201301560481 0  0.1043949820060815 0.9055901675413394 0  0.7472304391142466 0.4937115169957552 0  0.7437057827977005 0.3796800519519853 0  0.5837666239123878 0.0953941305957148 0  0.902362942345899 0.2218145421277327 0  0.1069592086353165 0.6081316226431639 0  0.5943281866118556 0.2221187317759835 0  0.09231256724200733 0.7788120293054371 0  0.2599118360316645 0.613680451156976 0  0.386610176029564 0.6631887582313238 0  0.2537946126497011 0.7917216350769677 0  0.9088286731471231 0.4704266021303271 0  0.5063995803351647 0.6198623457584774 0  0.3860058725664629 0.914148551469585 0  0.5069733898137954 0.7690591741519245 0  0.2189083152479363 0.9142871916137685 0  0.09240943628007152 0.353587386157095 0  0.3923666487137664 0.4973261685045393 0  0.9117702211709445 0.6463336145912728 0  0.2237945603996098 0.4867857348645567 0  0.9161970975027582 0.08252283236527229 0  0.3461519581374356 0.7752338663700789 0  0.6110313179874225 0.5139303735626758 0  0.08254453868152074 0.5295949336450964 0  0.5783651695896583 0.387014424669225 0  0.7680988053275425 0.1909346846843861 0  0.9202288100287571 0.8014462386955867 0  0.08317821648800833 0.2045345244679453 0  0.6743674448775834 0.2381773292297286 0  0.8014729691714902 0.9151682085422 0  0.1982142857142988 0.08392857142857235 0  0.9156947390731955 0.3830592165702195 0  0.2099925163896727 0.7117346125224077 0  0.8288873197852951 0.7991354001759553 0  0.1710420590992359 0.2009730661079498 0  0.8302601404977216 0.6362505489697606 0  0.8278972189280196 0.2432708264037497 0  0.1724373447570453 0.3750000000001119 0  0.8263815004216721 0.07675344797416643 0  0.6734552612001731 0.07775097080953899 0  0.6322765317037635 0.9278922409848336 0  0.3328795603068665 0.07550965653377333 0  0.4218141641894588 0.07552083333321569 0  0.7202413378918148 0.9252992098071467 0  0.3398398570642138 0.5956195883200471 0  0.1876245270259333 0.6393374142670434 0  0.5053993339633923 0.07647011170888637 0  0.0718750000000897 0.07187499999995482 0  0.9281249999999797 0.9281249999999464 0  0.4615331046556409 0.4767930683020147 0  0.8132809042322462 0.3596726603183649 0  0.8134265276406807 0.5108303348297808 0  0.4201515737436131 0.7514965833054841 0  0.9273040324515954 0.1585949917491647 0  0.06708721766401626 0.6750163115727243 0  0.56422475897686 0.4552131930394481 0  0.6791346043894576 0.5327473050102175 0  0.697255269395278 0.3214473484424947 0  0.2802981881263434 0.9339285714286927 0  0.5339285714285894 0.6802981881261965 0  0.1655838508805648 0.7568246324058057 0  0.07055580426794442 0.4304123740962421 0  0.3226088857382223 0.4646105576694787 0  0.5680970217443936 0.1590416415060358 0  0.4428489297902234 0.9319457679008186 0  0.9477157065683794 0.5858496809090185 0  0.9359768099749814 0.2904579204473128 0  0.1742846135096847 0.3003953810640202 0  0.06918270446438632 0.8409433163409716 0  0.8252358436657874 0.6976195482341206 0  0.5635633234700967 0.284788731469481 0  0.5521945854607904 0.9257613588772547 0  0.3635427058143873 0.8407659882482055 0  0.4499814782289108 0.6338364401188512 0  0.2390953482890149 0.8431241519968201 0  0.1517067680066363 0.9343448395931244 0  0.06539387153795677 0.3019693576901929 0  0.2575632692678596 0.06394502601111231 0  0.6555411638130636 0.3716910457745546 0  0.1608726846099766 0.5049389228359271 0  0.934949728583427 0.6997486429173009 0  0.2433845767894122 0.5499237975678901 0  0.939237790491481 0.8554484180187727 0  0.0630223880597205 0.1401119402987738 0  0.1348958333334102 0.06197916666672756 0  0.865104166666832 0.9380208333335958 0  0.7604230740984012 0.4373799400890658 0  0.5372647219903939 0.8402823937523813 0  0.1923510154511563 0.1420055354945893 0  0.8075445196362099 0.857996515152053 0  0.1885591087578553 0.4337380820533954 0  0.7105225609509752 0.1526657632181078 0  0.3666090240151971 0.7062960373879834 0  0.7966936723524515 0.3163062291281787 0  0.5508714508660905 0.570011516337836 0  0.4721626247170084 0.554486293857005 0  0.8002707048946301 0.5730607189697422 0  0.06641773621617075 0.9351618371252797 0  0.3665814154358935 0.5517819541861106 0  0.05442204514635005 0.7231523959702606 0  0.6284828997490257 0.05004553457671893 0  0.9398712002144101 0.5109326544100544 0  0.5433787542275291 0.7375061851781469 0  0.3375061851783711 0.9433787542277096 0  0.7215297270911555 0.05410988042852424 0  0.4797837765982246 0.8425479205787176 0  0.04271365523339227 0.5671101206092209 0  0.8714625424823598 0.3953934577117953 0  0.1490428061304692 0.875151828016147 0  0.2781199925553454 0.4510243744904079 0  0.5565677762207972 0.3450127136714147 0  0.1940357533673813 0.2535689772727561 0  0.3766403934953488 0.04740981637292114 0  0.2545866346220484 0.6725938042819365 0  0.3074605043080991 0.8017072464925095 0  0.8056636005117194 0.7469721857454302 0  0.1269450100636947 0.56224828215199 0  0.05350185589295817 0.249017632611271 0  0.674777132742694 0.8963085370316726 0  0.5117683592953793 0.4496907486941994 0  0.1169833904185793 0.8254360225452316 0  0.04504201214567945 0.4768561077888308 0  0.3055599085954928 0.6382433889748717 0  0.9450727948239286 0.7538737512009489 0  0.4306417842714623 0.8796919592677241 0  0.7923856483923215 0.141724914569402 0  0.8728297214303689 0.04978308383419468 0  0.9486377781753648 0.4273242585722439 0  0.437541018947418 0.5220595462426839 0  0.9484027151197005 0.346539625994936 0  0.7281038251562784 0.2284601524070051 0  0.8668606734410613 0.6709737204112667 0  0.690214514677936 0.4804244848868111 0  0.8493847380621981 0.4812225068388546 0  0.1333737946122648 0.326539344567937 0  0.7219350493285639 0.5495541898924469 0  0.6750000000008667 0.9530034763360794 0  0.6303201059992649 0.106643697324949 0  0.7119144016103087 0.4146430422909549 0  0.3761225040737161 0.1044665480092788 0  0.1419061815543131 0.6445935072656427 0  0.5010710576848406 0.9417334264593 0  0.8586198319213173 0.207759071572462 0  0.9472598698250957 0.05274013017491718 0  0.2988553637576897 0.7535345997678686 0  0.7805552894816058 0.05315972730291021 0  0.4120655818059855 0.7045889958912197 0  0.7495113277877659 0.3294098108501303 0  0.6308381164613092 0.2525569635330791 0  0.05405789668501901 0.6246
[...]
<PointData  Vectors="f_81"> 
<DataArray  type="Float64"  Name="f_81"  NumberOfComponents="3" format="ascii">-1.0849047875594157e-15 1.0000000000000038e+00 0.0000000000000000e+00  9.3317140931916145e-16 1.0000000000000038e+00 0.0000000000000000e+00  1.1267929085838075e-15 -1.0000000000000036e+00 0.0000000000000000e+00  -6.9039599289742415e-16 -1.0000000000000044e+00 0.0000000000000000e+00  -5.0028517013620085e-16 2.8993058536058674e-17 0.0000000000000000e+00  -4.7263612097945959e-16 -5.8805321828237989e-16 0.0000000000000000e+00  -6.1375117828115750e-17 1.1385244439760212e-16 0.0000000000000000e+00  -4.9997369273101165e-16 -2.3706909459181259e-16 0.0000000000000000e+00  -4.5152049888682231e-18 -2.2881584924884061e-18 0.0000000000000000e+00  7.4947396701739374e-16 3.7325493638121414e-16 0.0000000000000000e+00  4.6291523405825312e-16 -7.5818900711493254e-17 0.0000000000000000e+00  6.4924461099893657e-16 6.6356520410800690e-16 0.0000000000000000e+00  1.2082870597863667e-16 1.0000000000000100e+00 0.0000000000000000e+00  5.5840889679928376e-17 1.0000000000000107e+00 0.0000000000000000e+00  3.2145802127077150e-17 1.0000000000000111e+00 0.0000000000000000e+00  1.1384949306943095e-17 1.0000000000000113e+00 0.0000000000000000e+00  1.0088407909462092e-17 1.0000000000000109e+00 0.0000000000000000e+00  3.0314955895208325e-18 1.0000000000000107e+00 0.0000000000000000e+00  -9.3083633709448533e-19 1.0000000000000115e+00 0.0000000000000000e+00  -4.6335909408357906e-18 1.0000000000000111e+00 0.0000000000000000e+00  -4.6008027359823323e-18 1.0000000000000113e+00 0.0000000000000000e+00  -5.7988123298952810e-18 1.0000000000000111e+00 0.0000000000000000e+00  -5.2204110978295363e-18 1.0000000000000111e+00 0.0000000000000000e+00  -3.2533999631648125e-18 1.0000000000000109e+00 0.0000000000000000e+00  -1.8777206134165650e-18 1.0000000000000111e+00 0.0000000000000000e+00  -3.6684269730165925e-19 1.0000000000000113e+00 0.0000000000000000e+00  -1.6008057470120605e-18 1.0000000000000109e+00 0.0000000000000000e+00  -6.1740217933931686e-18 1.0000000000000109e+00 0.0000000000000000e+00  -3.9172440053159939e-17 1.0000000000000104e+00 0.0000000000000000e+00  -7.2101247886510881e-17 1.0000000000000109e+00 0.0000000000000000e+00  -2.1275385340912734e-16 1.0000000000000100e+00 0.0000000000000000e+00  -1.4753962618571730e-15 -9.7916117893871661e-17 0.0000000000000000e+00  -8.8359814585096491e-16 -4.7735028037584180e-17 0.0000000000000000e+00  -6.6018077693814681e-16 -3.2904025997977625e-17 0.0000000000000000e+00  -3.5165459052963807e-16 -4.5084468071212754e-18 0.0000000000000000e+00  -4.8804308878594689e-16 3.1312954707054102e-18 0.0000000000000000e+00  -4.5270787008256179e-16 2.2399341971621445e-18 0.0000000000000000e+00  -3.8583155077565929e-16 6.1598589621947887e-19 0.0000000000000000e+00  -3.7166192854747880e-16 4.1591595132633487e-20 0.0000000000000000e+00  -3.7891222578814775e-16 -1.8799299995326118e-18 0.0000000000000000e+00  -3.8977777154159622e-16 -5.6552578460276240e-18 0.0000000000000000e+00  -3.3284600308889631e-16 -9.9520180970701721e-18 0.0000000000000000e+00  -2.3865903508519327e-16 -4.5846297324266026e-18 0.0000000000000000e+00  -2.0841940250923825e-16 -2.0475773726270519e-19 0.0000000000000000e+00  -2.5117327516708281e-16 4.9949230857090338e-18 0.0000000000000000e+00  -3.6044819758392316e-16 1.2288006735815562e-17 0.0000000000000000e+00  -3.8974817872455880e-16 1.2426932729003222e-17 0.0000000000000000e+00  -5.3254334041747265e-16 2.0707195727110696e-17 0.0000000000000000e+00  -7.6480329369658487e-16 3.4244380726734963e-17 0.0000000000000000e+00  -1.3947833969941261e-15 9.5925634020008868e-17 0.0000000000000000e+00  -2.0466525067001511e-16 -1.0000000000000093e+00 0.0000000000000000e+00  -5.2004879030469903e-17 -1.0000000000000111e+00 0.0000000000000000e+00  -2.8498381103212975e-17 -1.0000000000000107e+00 0.0000000000000000e+00  -1.4474628508702727e-17 -1.0000000000000111e+00 0.0000000000000000e+00  -7.2134785516122014e-18 -1.0000000000000111e+00 0.0000000000000000e+00  -2.3773141514707268e-18 -1.0000000000000111e+00 0.0000000000000000e+00  6.4866912474778870e-19 -1.0000000000000107e+00 0.0000000000000000e+00  3.7453333172714849e-18 -1.0000000000000118e+00 0.0000000000000000e+00  5.5829182974823742e-18 -1.0000000000000115e+00 0.0000000000000000e+00  9.2999664286799853e-18 -1.0000000000000122e+00 0.0000000000000000e+00  5.3842048734979980e-18 -1.0000000000000118e+00 0.0000000000000000e+00  5.0459618598604965e-18 -1.0000000000000115e+00 0.0000000000000000e+00  1.5443092138102898e-18 -1.0000000000000107e+00 0.0000000000000000e+00  3.6295958471146267e-19 -1.0000000000000109e+00 0.0000000000000000e+00  1.8036304978943172e-18 -1.0000000000000118e+00 0.0000000000000000e+00  5.2465603865600903e-18 -1.0000000000000104e+00 0.0000000000000000e+00  3.5914978112550238e-17 -1.0000000000000107e+00 0.0000000000000000e+00  7.2731538798491903e-17 -1.0000000000000111e+00 0.0000000000000000e+00  2.1011347447455103e-16 -1.0000000000000102e+00 0.0000000000000000e+00  1.3806263081711163e-15 9.5952814792991741e-17 0.0000000000000000e+00  8.8851505860866609e-16 4.6469646077406363e-17 0.0000000000000000e+00  6.9398158635544536e-16 2.8709096665064143e-17 0.0000000000000000e+00  4.6401923086759853e-16 3.2598250230524122e-18 0.0000000000000000e+00  3.9582628209669954e-16 -2.5146930696390597e-18 0.0000000000000000e+00  4.4173797110632109e-16 -1.8177145033702166e-18 0.0000000000000000e+00  4.3506540640386675e-16 1.0859522593595223e-18 0.0000000000000000e+00  3.8082334284603313e-16 6.0667633072063276e-18 0.0000000000000000e+00  3.2515916167796167e-16 9.0552402593139838e-18 0.0000000000000000e+00  2.9490717066805875e-16 9.8938792860509687e-18 0.0000000000000000e+00  1.2934214718316199e-16 2.0163172660306885e-18 0.0000000000000000e+00  1.5352254480821429e-16 2.8647966910370403e-21 0.0000000000000000e+00  2.0572220964633121e-16 -3.5775587003303190e-18 0.0000000000000000e+00  1.8335865207817429e-16 -3.4054057572134106e-18 0.0000000000000000e+00  2.1731530962229148e-16 -4.8078364220102310e-18 0.0000000000000000e+00  3.3127379434369397e-16 -9.5873744968408244e-18 0.0000000000000000e+00  6.4798613225045323e-16 -3.1261326579359785e-17 0.0000000000000000e+00  6.3147114346207817e-16 -2.7348464978777764e-17 0.0000000000000000e+00  9.5963275104358633e-16 -5.7648873298560755e-17 0.0000000000000000e+00  -8.8703769946814619e-18 -3.5725695937563135e-16 0.0000000000000000e+00  -2.4188952313572713e-19 -3.0914896228387237e-16 0.0000000000000000e+00  -1.0662225607412523e-18 -3.4583563842019240e-16 0.0000000000000000e+00  -4.4078227803109101e-18 -2.3167271411900845e-16 0.0000000000000000e+00  -4.2206254716919841e-16 4.1251125696956820e-18 0.0000000000000000e+00  -3.6955883361546411e-16 6.3913397864050447e-19 0.0000000000000000e+00  -3.7392481347917532e-16 1.0130211683307059e-19 0.0000000000000000e+00  -4.6188343532629298e-16 -5.5300692179124706e-18 0.0000000000000000e+00  -1.8953611520299789e-17 4.9459705720044419e-17 0.0000000000000000e+00  -3.6092200094314757e-18 8.2367347721787656e-17 0.0000000000000000e+00  -7.9892727534960206e-19 8.6025451453120684e-17 0.0000000000000000e+00  -6.8142018448258920e-20 1.4564826063788718e-16 0.0000000000000000e+00  -5.1089342899946528e-17 -5.8217206151700464e-18 0.0000000000000000e+00  -6.7808725203311907e-17 -4.8558738074432686e-18 0.0000000000000000e+00  -9.5137460293294397e-17 -4.5683384134737403e-18 0.0000000000000000e+00  -1.7144027653222062e-16 -1.2791051881896147e-17 0.0000000000000000e+00  -1.1615830214821083e-18 -2.9215398963936766e-17 0.0000000000000000e+00  7.4894845408723011e-19 -3.0729557634725051e-17 0.0000000000000000e+00  5.3736653476324715e-18 -2.1225417197746632e-17 0.0000000000000000e+00  7.4753937843623272e-18 2.7052572513409094e-17 0.0000000000000000e+00  4.5688572147282317e-18 2.0671033205025248e-16 0.0000000000000000e+00  1.1187598784158840e-18 3.0737463427477153e-16 0.0000000000000000e+00  1.8909447335898426e-19 2.5760069970732482e-16 0.0000000000000000e+00  6.7404426182958858e-18 2.9192135960863395e-16 0.0000000000000000e+00  1.4368996024963684e-16 1.4577242344166055e-17 0.0000000000000000e+00  4.4840688055493156e-17 4.3934417558765262e-18 0.0000000000000000e+00  4.6120603980368839e-16 2.3516508187748437e-18 0.0000000000000000e+00  4.2271515122146368e-16 -3.5335181461298253e-18 0.0000000000000000e+00  6.0247973422625313e-02 -1.4844592889673403e-01 0.0000000000000000e+00  -9.5261376043731041e-02 1.5026043930873156e-01 0.0000000000000000e+00  -1.0892169679028202e-01 -7.0584120893890892e-02 0.0000000000000000e+00  9.6819428874177493e-02 7.0481809726674907e-02 0.0000000000000000e+00  1.5909297660709665e-01 -1.6379832567211868e-02 0.0000000000000000e+00  2.4131748574114570e-01 -8.2541164149406099e-02 0.0000000000000000e+00  -4.8309195271301744e-02 -6.8012078756475511e-02 0.0000000000000000e+00  7.6096224118963857e-02 1.2744690344562667e-01 0.0000000000000000e+00  -2.7472826860467625e-01 7.7664791993522997e-02 0.0000000000000000e+00  -1.8024181258691582e-01 4.5742471643201707e-02 0.0000000000000000e+00  2.8668384640230558e-02 1.1829920675541915e-01 0.0000000000000000e+00  2.4607359699206254e-02 -5.2950148981791935e-02 0.0000000000000000e+00  2.4006095231509067e-01 -7.5254152283169548e-02 0.0000000000000000e+00  -1.4158404222019497e-01 -1.0927635436492363e-01 0.0000000000000000e+00  -8.9805410340556155e-02 -4.9977449767488163e-02 0.0000000000000000e+00  -2.1644638242556906e-02 -9.7738347332675196e-02 0.0000000000000000e+00  7.8182677392377331e-02 1.8359028164714256e-02 0.0000000000000000e+00  -2.7183835942062473e-02 1.3582909564652662e-01 0.0000000000000000e+00  -1.0953751303764959e-02 -8.1683524489901210e-02 0.0000000000000000e+00  2.3350245514783524e-01 8.2216118983927486e-02 0.0000000000000000e+00  -2.1861448789700580e-01 -9.4546026738679942e-02 0.0000000000000000e+00  1.1274848523745197e-02 6.2982042723358084e-02 0.0000000000000000e+00  -2.2586561670737582e-02 -5.9268162324202919e-03 0.0000000000000000e+00  -2.7057072003053606e-01 7.4397735885012195e-02 0.0000000000000000e+00  1.9048278630458348e-01 7.4612288491252565e-02 0.0000000000000000e+00  3.3184223769408250e-01 -5.6025423815860682e-02 0.0000000000000000e+00  1.5401624684126955e-01 1.3590742104435286e-01 0.0000000000000000e+00  4.5234644686428245e-02 1.6165548125726065e-01 0.0000000000000000e+00  -1.9296615212765630e-01 -3.8188525874214174e-02 0.0000000000000000e+00  -9.8803908828382581e-02 -1.9818020425693042e-01 0.0000000000000000e+00  -3.3100347046916952e-02 2.2056855620677521e-01 0.0000000000000000e+00  -6.5188696133882479e-02 6.0881020089291561e-02 0.0000000000000000e+00  9.3322852592178374e-02 2.3117951179098875e-01 0.0000000000000000e+00  -6.8067019216856109e-02 -1.4597797669914839e-01 0.0000000000000000e+00  5.9135631284941191e-03 -1.0864859173375611e-01 0.0000000000000000e+00  2.0803390883816789e-01 -1.3400727749371588e-01 0.0000000000000000e+00  4.8966130852016052e-02 -2.5610263318992466e-01 0.0000000000000000e+00  -1.4271843424220070e-02 -3.8197008353069314e-02 0.0000000000000000e+00  1.6623662099841194e-01 -1.0373335586008373e-02 0.0000000000000000e+00  4.8469205637041601e-02 5.7965661426376551e-04 0.0000000000000000e+00  2.8567583808198183e-01 -6.8025462913665291e-02 0.0000000000000000e+00  -1.7930902725365971e-02 9.9538171469907719e-02 0.0000000000000000e+00  -7.6271510009288432e-02 -4.0646740687302368e-02 0.0000000000000000e+00  1.5669174093304348e-02 -1.4434022267529276e-01 0.0000000000000000e+00  -1.8872988488460923e-01 -1.5200368182890464e-01 0.0000000000000000e+00  -3.2194278305031110e-01 3.4565703119801110e-02 0.0000000000000000e+00  1.5094161896253014e-01 -1.0438333982909793e-01 0.0000000000000000e+00  3.1063257729487169e-02 4.1779002956180693e-02 0.0000000000000000e+00  -4.6087729110197193e-02 3.0505310928746227e-01 0.0000000000000000e+00  7.0586241538556178e-03 1.0102793950812232e-01 0.0000000000000000e+00  -2.2719074137856854e-01 1.2992188099381585e-01 0.0000000000000000e+00  4.8828425069292102e-02 -1.6264138650274321e-01 0.0000000000000000e+00  -4.3397304474239499e-02 1.2783305384848823e-01 0.0000000000000000e+00  -1.1699962243327647e-01 1.3022038720674387e-01 0.0000000000000000e+00  2.7665081286982246e-01 2.0737193526537152e-02 0.0000000000000000e+00  -2.5467155825925386e-01 -3.0642252248496017e-02 0.0000000000000000e+00  1.6398573965295708e-02 -3.5078519825225429e-01 0.0000000000000000e+00  8.1497785225621650e-02 -1.0507116267500156e-01 0.0000000000000000e+00  4.9920354527519396e-02 1.4278528915741043e-01 0.0000000000000000e+00  -4.6877863977296277e-02 -1.5981185796107913e-01 0.0000000000000000e+00  3.4497499029702686e-02 1.8233720912721074e-01 0.0000000000000000e+00  -1.3823178969474970e-01 5.7475871323593136e-02 0.0000000000000000e+00  -4.8563462398179789e-02 -2.0272773970495148e-01 0.0000000000000000e+00  -3.1927525845109900e-01 7.1774467173965836e-02 0.0000000000000000e+00  -1.8951353903292528e-01 1.6742899828470860e-02 0.0000000000000000e+00  2.8649706514054890e-01 1.5184592554442988e-02 0.0000000000000000e+00  -2.5921240922053684e-01 3.3584199096806369e-03 0.0000000000000000e+00  -2.5938610573152077e-01 -2.3154107461282581e-03 0.0000000000000000e+00  2.8726454741387736e-01 -1.1465999123353773e-02 0.0000000000000000e+00  -7.2501382487786273e-02 -1.2355045641301386e-01 0.0000000000000000e+00  -2.6557998264676082e-02 -6.2197895082436616e-02 0.0000000000000000e+00  -2.4338080669913678e-01 -3.5745573012026695e-02 0.0000000000000000e+00  -3.0267483335304468e-01 -4.1003205439118083e-02 0.0000000000000000e+00  3.0662375843181089e-01 3.6644072557459439e-02 0.0000000000000000e+00  -3.6370174405982079e-02 -1.1085573278924881e-02 0.0000000000000000e+00  1.8107835954792938e-02 6.9820290339535948e-02 0.0000000000000000e+00  1.4764426072773174e-01 1.3420747879605133e-01 0.0000000000000000e+00  8.9007977631316876e-02 -6.1101314260434768e-02 0.0000000000000000e+00  -1.3117900730714044e-01 -2.3047734394285418e-01 0.0000000000000000e+00  5.6516977771627714e-03 4.6967194078612812e-01 0.0000000000000000e+00  3.3977169890451954e-03 5.8036801876103800e-02 0.0000000000000000e+00  8.6544577047834623e-02 4.7941035332603334e-02 0.0000000000000000e+00  -2.6004947706856473e-02 1.7055186874085609e-01 0.0000000000000000e+00  1.9593016389264467e-01 -3.2408799515013909e-02 0.0000000000000000e+00  2.3146417157401014e-03 -2.8898780657217415e-02 0.0000000000000000e+00  1.3836410105937441e-01 -3.5343693340324299e-02 0.0000000000000000e+00  -3.1091956515118761e-02 2.9866121102495174e-01 0.0000000000000000e+00  -1.1205001903150431e-01 -3.9671635058515446e-02 0.0000000000000000e+00  -1.0712826313410095e-01 -3.0433119668884772e-02 0.0000000000000000e+00  1.4545145562349826e-01 1.3258769429837189e-02 0.0000000000000000e+00  1.5055103124148657e-02 -4.5151545709552171e-01 0.0000000000000000e+00  -1.8046094111394573e-02 -4.7594250112978387e-01 0.0000000000000000e+00  -5.9633396466592190e-03 -1.9170295128300971e-01 0.0000000000000000e+00  1.2250485923512296e-01 2.5847576731128946e-01 0.0000000000000000e+00  5.9592781255117305e-03 1.7682705010377764e-01 0.0000000000000000e+00  -1.2735684719961641e-02 8.1460896280299247e-02 0.0000000000000000e+00  2.2872293034280525e-01 5.5981646528252257e-02 0.0000000000000000e+00  1.9490952429289621e-01 -5.6343560890916175e-02 0.0000000000000000e+00  -1.5747437502926606e-02 -6.8970897768975650e-02 0.0000000000000000e+00  2.7162628713424231e-01 -1.1640135755431218e-01 0.0000000000000000e+00  3.2823102742716664e-01 -6.6138646405579593e-02 0.0000000000000000e+00  -4.1857203531883661e-03 2.9193514949669608e-01 0.0000000000000000e+00  -2.4491038334134860e-01 7.4359064351245934e-03 0.0000000000000000e+00  2.1575265872600110e-02 1.5618009247055603e-01 0.0000000000000000e+00  -1.3443644973495159e-01 -7.7481693323785378e-02 0.0000000000000000e+00  4.0566785677254892e-03 -3.0938638352179731e-01 0.0000000000000000e+00  -1.4680675460942808e-01 -1.4076085834290214e-01 0.0000000000000000e+00  9.3303972124919518e-02 -2.3371366253816228e-01 0.0000000000000000e+00  -1.0301807480724311e-01 1.9512640249159244e-01 0.0000000000000000e+00  -3.0486952967509973e-01 -6.9296629353214984e-02 0.0000000000000000e+00  3.1617365059034169e-01 6.3652828285113289e-02 0.0000000000000000e+00  1.1133064352524197e-01 1.4879778100813038e-01 0.0000000000000000e+00  1.0048217019951283e-01 7.7241653898410673e-02 0.0000000000000000e+00  -1.3672514910607159e-01 -8.1993074666364407e-02 0.0000000000000000e+00  1.4880830665135122e-01 6.5074821765263705e-02 0.0000000000000000e+00  -1.4040679681187548e-01 -1.9576607752661263e-01 0.0000000000000000e+00  -2.3246406162384464e-01 8.9951778410466671e-02 0.0000000000000000e+00  5.8551267508535468e-02 -1.1579033003112983e-01 0.0000000000000000e+00  -3.8126871130474964e-02 1.0340789347427556e-01 0.0000000000000000e+00  -1.0339250564879799e-02 -6.4522246570284702e-03 0.0000000000000000e+00  -3.8977660251623775e-02 -3.6373340555485432e-02 0.0000000000000000e+00  1.2842119568276700e-01 1.9009323423558849e-01 0.0000000000000000e+00  3.2578325373186162e-01 -2.7503145970390452e-02 0.0000000000000000e+00  -9.0400892336452987e-02 -8.7518576113831681e-02 0.0000000000000000e+00  1.7690264325712565e-02 5.4169162312668306e-01 0.0000000000000000e+00  -1.3874887264168154e-01 -4.9188499179888007e-03 0.0000000000000000e+00  2.6577104070987130e-02 -4.3646988892460470e-01 0.0000000000000000e+00  1.2143907246133357e-02 -1.2010411829628174e-02 0.0000000000000000e+00  1.4173353672788072e-01 -1.4349319492174850e-02 0.0000000000000000e+00  -1.7411183011329190e-01 2.0385084331247558e-02 0.0000000000000000e+00  1.4135820842413183e-01 3.9925642777938836e-02 0.0000000000000000e+00  -1.1776374063403266e-02 6.2236119740454410e-01 0.0000000000000000e+00  3.9191222920827870e-02 -1.1321885726001546e-01 0.0000000000000000e+00  3.1923388855536999e-01 -8.6036332531318399e-02 0.0000000000000000e+00  -1.4701434605557101e-01 -5.9176821462001518e-02 0.0000000000000000e+00  -3.6097520534212745e-04 8.4947118162345334e-02 0.0000000000000000e+00  -5.6852824294807000e-03 -1.7694537451420098e-01 0.0000000000000000e+00  -2.2443964645697767e-01 6.2747802208270535e-04 0.0000000000000000e+00  2.0292061148138446e-02 -1.4462742730963782e-01 0.0000000000000000e+00  1.9868450379658867e-01 -1.1482599347737263e-01 0.0000000000000000e+00  6.0445853011321833e-03 1.6395463809866981e-01 0.0000000000000000e+00  -7.3741284643380783e-02 9.5487676463353696e-02 0.0000000000000000e+00  -7.3088599399626841e-03 3.8960097050851639e-01 0.0000000000000000e+00  2.5005172714226614e-01 -1.3500169700572694e-03 0.0000000000000000e+00  -1.8288273072033828e-02 2.0075066631139643e-02 0.0000000000000000e+00  1.9873104742550163e-01 3.9489890351268507e-02 0.0000000000000000e+00  -1.7111352402354389e-02 5.4581483904502714e-01 0.0000000000000000e+00  -2.9612163618268676e-02 -1.4734327805219219e-01 0.0000000000000000e+00  8.6207454677452184e-03 -3.8846140925754918e-01 0.0000000000000000e+00  1.7498567570277698e-01 9.0198529857913341e-03 0.0000000000000000e+00  -2.9267056715531625e-01 1.1100612990249793e-01 0.0000000000000000e+00  -3.2206450639140766e-01 5.5770577495453603e-02 0.0000000000000000e+00  1.3968492093868070e-02 -5.5876482904363012e-01 0.0000000000000000e+00  -5.5503328591313586e-02 -3.8065752813591744e-02 0.0000000000000000e+00  6.2872574879833238e-04 -5.7794009924951517e-01 0.0000000000000000e+00  -1.5989049935199290e-01 1.4445500295702315e-01 0.0000000000000000e+00  1.4977669394884121e-02 9.3659091088644300e-02 0.0000000000000000e+00  1.0665095970477584e-01 1.0953246055061579e-01 0.0000000000000000e+00  1.0657231728466428e-01 2.8628440178199651e-02 0.0000000000000000e+00  -1.4970814394401569e-02 -1.1309891840776336e-01 0.0000000000000000e+00  1.2497367684575235e-01 5.8730877565672773e-02 0.0000000000000000e+00  2.4783584426275834e-01 -9.4940747325837432e-04 0.0000000000000000e+00  -1.9342505245358363e-01 -1.1727684674754115e-03 0.0000000000000000e+00  7.6840083072277576e-02 1.5942771779105733e-01 0.0000000000000000e+00  -2.191148