<?xml version="1.0"?>
<VTKFile type="UnstructuredGrid"  version="0.1"  >
<UnstructuredGrid>
<Piece  NumberOfPoints="1416" NumberOfCells="2750">
<Points>
<DataArray  type="Float64"  NumberOfComponents="3"  format="ascii">10000 0 0  9969.173337331546 784.5909572750695 0  9440.811062854247 337.8086441165926 0  9969.173337331289 -784.5909572783328 0  9119.461671696214 -436.047325602827 0  0 10000 0  784.5909572783328 9969.173337331289 0  436.0473256028242 9119.461671696214 0  -784.5909572750695 9969.173337331546 0  -337.8086441165958 9440.811062854247 0  -10000 0 0  -9969.173337331289 784.5909572783328 0  -9119.461671696214 436.0473256028198 0  -9969.173337331546 -784.5909572750695 0  -9440.811062854247 -337.8086441165943 0  0 -10000 0  -784.5909572783328 -9969.173337331289 0  -436.0473256028237 -9119.461671696215 0  784.5909572750695 -9969.173337331546 0  337.8086441165926 -9440.811062854247 0  1000 0 0  825.5112685286344 233.2965221726817 0  1210.652051555102 178.7580587220347 0  758.3105164940762 -28.48526495347746 0  1257.782871779572 -45.21674913664203 0  853.1788281180126 -255.1195435303564 0  1122.147561214101 -201.3091483794531 0  0 1000 0  -224.5942532759738 814.142362917265 0  28.69055186178868 757.9412270694447 0  -193.2123325114539 1112.182883894174 0  179.7197598806582 1215.220055532552 0  249.331013302979 860.3118401498294 0  -37.93559097040777 1253.495422595633 0  -1000 0 0  -824.851195817888 -232.1783906338463 0  -1210.595922923236 -178.6629795095487 0  -757.4575350892064 29.53393923004192 0  -1257.504710586107 45.16695969320045 0  -851.7633041405784 248.1772228548502 0  -1120.885945661195 200.0563625481669 0  0 -1000 0  249.0340813110638 -842.6509245101993 0  180.0207135594895 -1211.849580489497 0  18.33127838206231 -719.7561862243336 0  -45.09404287730242 -1257.692498219919 0  -252.413804548122 -852.0675834927048 0  -200.9036788868213 -1120.94680153162 0  2000 0 0  1712.325186787277 -225.5688316983879 0  1949.292517575665 -404.0263120746235 0  1758.092477153796 22.27922893435602 0  2220.4090632581 -278.1657736385001 0  2264.940937824128 12.17221832991 0  2022.901005636987 245.209440425862 0  0 2000 0  301.9748726397239 1740.654411212139 0  1.120723757020302e-12 1745.628282521672 0  388.8436927040806 1995.749174184361 0  -265.4266168243358 2269.848489623402 0  -269.5511398733495 1970.956450977053 0  14.70097338908518 2279.104059422062 0  278.8454224092475 2226.372287316351 0  -2000 0 0  -1712.325186787277 225.5688316983877 0  -1949.292517575666 404.026312074623 0  -1758.092477153796 -22.27922893435661 0  -2220.4090632581 278.1657736385 0  -2264.940937824128 -12.1722183299102 0  -2022.901005636987 -245.2094404258624 0  0 -2000 0  -225.5688316983879 -1712.325186787277 0  -404.0263120746235 -1949.292517575665 0  22.17353424893216 -1758.317218185472 0  -278.1657736385001 -2220.4090632581 0  12.17221832991003 -2264.940937824128 0  245.209440425862 -2022.901005636987 0  9876.883405952116 1564.344650397643 0  9413.741379249825 893.2779112941004 0  9723.699203978225 2334.453638552975 0  9281.686298197614 1862.981019420672 0  8978.354407498971 1302.212327038938 0  9510.565162954143 3090.169943741452 0  9171.616356661538 2425.460729511194 0  9238.7953251169 3826.834323641162 0  8786.327444180986 2855.609134985008 0  8910.065241889364 4539.904997384312 0  8576.420325493971 4088.764306853787 0  8462.074319507847 3512.480585282223 0  8526.40164354859 5224.985647146975 0  8380.046298293893 4548.240288757754 0  8090.169943758854 5877.852522911823 0  7683.770966481169 5298.80797610165 0  7874.660194180307 4750.86281684807 0  7604.059656011831 6494.480483288346 0  7228.811045347766 5749.151035153302 0  7071.067811878895 7071.067811852055 0  6882.490700411468 6265.549259424126 0  6494.480483314509 7604.059655989487 0  6558.565613988438 6766.215058556128 0  5877.852522936711 8090.169943740771 0  5735.388635244923 7423.195460774175 0  5981.697728245949 6848.506665974658 0  5224.985647170473 8526.401643534191 0  5307.257413765717 7837.676472666109 0  4539.904997404682 8910.065241878983 0  4613.173854048643 7930.353439924153 0  3826.834323658716 9238.79532510963 0  3877.010908226574 8367.304709936669 0  3090.169943755497 9510.565162949579 0  3395.404259564986 8853.279745804064 0  2334.4536385629 9723.699203975842 0  2848.849836324876 8831.763646725167 0  1564.34465040468 9876.883405951001 0  1666.047411844783 9306.350461236803 0  2135.463838140692 8932.199249345211 0  1138.519892287582 9404.047671358992 0  -1564.344650397643 9876.883405952116 0  -893.2779112941062 9413.741379249825 0  -2334.453638552975 9723.699203978225 0  -1862.981019420678 9281.686298197616 0  -1302.212327038943 8978.354407498971 0  -3090.169943741452 9510.565162954143 0  -2425.460729511197 9171.61635666154 0  -3826.834323641162 9238.7953251169 0  -2855.609134985011 8786.32744418099 0  -4539.904997384312 8910.065241889364 0  -4088.764306853793 8576.420325493971 0  -3512.480585282231 8462.074319507852 0  -5224.985647146975 8526.40164354859 0  -4548.240288757759 8380.046298293893 0  -5877.852522911823 8090.169943758854 0  -5298.807976101652 7683.770966481165 0  -4750.862816848074 7874.660194180306 0  -6494.480483288346 7604.059656011831 0  -5749.151035153306 7228.811045347762 0  -7071.067811852055 7071.067811878895 0  -6265.549259424123 6882.490700411468 0  -7604.059655989487 6494.480483314509 0  -6766.215058556127 6558.565613988435 0  -8090.169943740771 5877.852522936711 0  -7423.195460774181 5735.388635244917 0  -6848.506665974661 5981.697728245946 0  -8526.401643534191 5224.985647170473 0  -7837.676472666112 5307.257413765715 0  -8910.065241878983 4539.904997404682 0  -7930.353439924156 4613.173854048636 0  -9238.79532510963 3826.834323658716 0  -8367.304709936674 3877.010908226573 0  -9510.565162949579 3090.169943755497 0  -8853.279745804064 3395.404259564985 0  -9723.699203975842 2334.4536385629 0  -8831.763646725163 2848.849836324873 0  -9876.883405951001 1564.34465040468 0  -9306.350461236801 1666.047411844779 0  -8932.199249345213 2135.463838140684 0  -9404.047671358992 1138.519892287579 0  -9876.883405952116 -1564.344650397643 0  -9413.741379249826 -893.2779112941001 0  -9723.699203978225 -2334.453638552975 0  -9281.686298197616 -1862.981019420666 0  -8978.354407498975 -1302.212327038933 0  -9510.565162954143 -3090.169943741452 0  -9171.61635666154 -2425.460729511192 0  -9238.7953251169 -3826.834323641162 0  -8786.32744418099 -2855.609134985002 0  -8910.065241889364 -4539.904997384312 0  -8576.420325493969 -4088.764306853795 0  -8462.074319507856 -3512.480585282229 0  -8526.40164354859 -5224.985647146975 0  -8380.046298293893 -4548.240288757762 0  -8090.169943758854 -5877.852522911823 0  -7683.770966481169 -5298.807976101652 0  -7874.660194180307 -4750.862816848075 0  -7604.059656011831 -6494.480483288346 0  -7228.811045347765 -5749.151035153303 0  -7071.067811878895 -7071.067811852055 0  -6882.490700411463 -6265.549259424131 0  -6494.480483314509 -7604.059655989487 0  -6558.565613988436 -6766.215058556136 0  -5877.852522936711 -8090.169943740771 0  -5735.388635244922 -7423.195460774175 0  -5981.697728245952 -6848.506665974656 0  -5224.985647170473 -8526.401643534191 0  -5307.257413765717 -7837.676472666109 0  -4539.904997404682 -8910.065241878983 0  -4613.173854048643 -7930.353439924151 0  -3826.834323658716 -9238.79532510963 0  -3877.010908226574 -8367.304709936669 0  -3090.169943755497 -9510.565162949579 0  -3395.404259564985 -8853.279745804059 0  -2334.4536385629 -9723.699203975842 0  -2848.849836324873 -8831.763646725161 0  -1564.34465040468 -9876.883405951001 0  -1666.047411844782 -9306.350461236796 0  -2135.463838140686 -8932.199249345209 0  -1138.519892287581 -9404.047671358991 0  1564.344650397643 -9876.883405952116 0  893.2779112940983 -9413.741379249826 0  2334.453638552975 -9723.699203978225 0  1862.981019420666 -9281.686298197616 0  1302.212327038932 -8978.354407498975 0  3090.169943741452 -9510.565162954143 0  2425.460729511192 -9171.61635666154 0  3826.834323641162 -9238.7953251169 0  2855.609134985002 -8786.32744418099 0  4539.904997384312 -8910.065241889364 0  4088.764306853795 -8576.420325493969 0  3512.480585282229 -8462.074319507856 0  5224.985647146975 -8526.40164354859 0  4548.240288757762 -8380.046298293893 0  5877.852522911823 -8090.169943758854 0  5298.807976101651 -7683.770966481169 0  4750.862816848074 -7874.660194180306 0  6494.480483288346 -7604.059656011831 0  5749.151035153302 -7228.811045347768 0  7071.067811852055 -7071.067811878895 0  6265.54925942412 -6882.490700411468 0  7604.059655989487 -6494.480483314509 0  6766.215058556126 -6558.56561398844 0  8090.169943740771 -5877.852522936711 0  7423.195460774175 -5735.388635244922 0  6848.506665974652 -5981.697728245953 0  8526.401643534191 -5224.985647170473 0  7837.676472666108 -5307.257413765719 0  8910.065241878983 -4539.904997404682 0  7930.353439924147 -4613.173854048646 0  9238.79532510963 -3826.834323658716 0  8367.304709936667 -3877.010908226576 0  9510.565162949579 -3090.169943755497 0  8853.279745804059 -3395.404259564986 0  9723.699203975842 -2334.4536385629 0  8831.76364672516 -2848.849836324872 0  9876.883405951001 -1564.34465040468 0  9306.350461236796 -1666.047411844782 0  8932.199249345209 -2135.463838140685 0  9404.047671358989 -1138.519892287582 0  3890.561977844704 -3980.209838863507 0  3378.112472111499 -3620.467011831335 0  3865.652261003032 -3450.186185358944 0  3413.999318598406 -4024.335624504108 0  4503.212714161729 -3720.115308817993 0  4398.512117453444 -4241.925396324142 0  3572.533128876644 -4426.573998554646 0  3995.622341410154 -4399.580205031658 0  -3980.209838863506 -3890.561977844704 0  -3620.467011831334 -3378.112472111499 0  -3450.186185358944 -3865.652261003033 0  -4024.335624504107 -3413.999318598408 0  -3720.115308817994 -4503.21271416173 0  -4241.925396324144 -4398.512117453445 0  -4426.573998554645 -3572.533128876645 0  -4399.580205031658 -3995.622341410156 0  3980.209838863507 3890.561977844706 0  3620.467011831334 3378.
[...]
<PointData  Scalars="f_221418"> 
<DataArray  type="Float64"  Name="f_221418"  format="ascii">9.6256600973482342e+00  9.3273065106091408e+00  9.3573135045077791e+00  9.7636195429557144e+00  9.9778193128574575e+00  1.0460314461647060e+01  1.0322285815722770e+01  1.0162193029235631e+01  1.0455316839061309e+01  1.0397768688620467e+01  1.0750447796364226e+01  1.0490583336372428e+01  1.0814137667111694e+01  1.0672087274986735e+01  1.0767796252477702e+01  9.8656094192408812e+00  9.7619770937987980e+00  9.6735027913325116e+00  9.6691321874812726e+00  9.7228427425268382e+00  9.0569599302092367e+00  9.4382252379571430e+00  9.1121507328072049e+00  9.1868036600561140e+00  8.9284574424275487e+00  8.9945921862235227e+00  8.9092942935901540e+00  1.0969172594917829e+01  1.0884810080921836e+01  1.0673691973799118e+01  1.1151828616818579e+01  1.1084713638578274e+01  1.0684210976365662e+01  1.1187892764381354e+01  1.0297527909473640e+01  9.7450872563222291e+00  1.0125767224136247e+01  1.0158511742536827e+01  1.0546868286328637e+01  1.0649025744073924e+01  1.0753387243386927e+01  9.6577951632702774e+00  9.5657708164365403e+00  9.9508039533375854e+00  9.4517165328487511e+00  9.8380862063295424e+00  9.4198257453779224e+00  9.6227114865214567e+00  9.0886621266895506e+00  9.0150359426955333e+00  9.4649066374209294e+00  8.9701412152118944e+00  9.6743829453755641e+00  9.2878536962220206e+00  9.0152013284479260e+00  1.0902629671939531e+01  1.0849500495258752e+01  1.1081034761651500e+01  1.0288972696546470e+01  1.0986764814754476e+01  1.0975674575114775e+01  1.0811563847875789e+01  1.0386994494107471e+01  1.0706639102782232e+01  1.0995298902295872e+01  1.1189458611566298e+01  1.0572924677708485e+01  1.1156464396696597e+01  1.0904570292593355e+01  1.0130719455054045e+01  9.9284832031292218e+00  9.9231816473801935e+00  9.9351841793871181e+00  1.0011354798299116e+01  9.9245949988541593e+00  9.8303171180296864e+00  9.8997300214800426e+00  9.4959928658391135e+00  9.1975490328811969e+00  1.0094338752056782e+01  9.7491839475593327e+00  9.3158279949295562e+00  1.0494356747461788e+01  1.0225384018011232e+01  1.0500664248108611e+01  1.0524678788285208e+01  1.0265304517519981e+01  1.0317536980969379e+01  1.0450603397299497e+01  9.9551558825003585e+00  1.0101344331177186e+01  9.8575952378208953e+00  9.6848365911697147e+00  9.8276821408152415e+00  1.0216302901585708e+01  9.8507084619994103e+00  1.0640073374554675e+01  1.0344126013252280e+01  1.0734713321120990e+01  1.0706925380093912e+01  1.0472679954792657e+01  1.0622018086949138e+01  1.0804397467896145e+01  1.0110903830806828e+01  1.0279509059240315e+01  1.0010555698582589e+01  9.8188749979861232e+00  1.0115692454216168e+01  9.7989124523878974e+00  1.0162562879819911e+01  9.9997213270186940e+00  1.0161332347676503e+01  9.9361201465240736e+00  1.0168543265969010e+01  9.9912848438542099e+00  9.7882529413026305e+00  1.0103012024309328e+01  1.0419534033688008e+01  1.0367793542557230e+01  1.0388784907721730e+01  1.0316415970803137e+01  1.0147963652143826e+01  1.0412804043645020e+01  1.0357325115598213e+01  1.0386735236952005e+01  1.0386597294684927e+01  1.0299402065498892e+01  1.0314011155745765e+01  1.0363691528268353e+01  1.0166523666943204e+01  1.0229672735626790e+01  1.0015481077415648e+01  9.9913836689904976e+00  1.0120325520854974e+01  9.9248081691557495e+00  9.8710920993364706e+00  9.9242818752947493e+00  9.8428115173322492e+00  9.9531704795299962e+00  9.8514921791825731e+00  9.9035291853352785e+00  9.8308585859062383e+00  9.8186309183325147e+00  9.8178848526235818e+00  9.7727045826479237e+00  9.7966274456554050e+00  9.6416259613665183e+00  9.7382576128402167e+00  9.6440412925850829e+00  9.6083416942490558e+00  9.5949708197226453e+00  9.6940156932903339e+00  9.5394021609521769e+00  1.0022862118575297e+01  9.9360141360963308e+00  9.7795131490795395e+00  1.0274331235546704e+01  1.0596635249715655e+01  1.0646123700172836e+01  1.0686290539824551e+01  1.0642095453501646e+01  1.0562537447912769e+01  1.0836071944263768e+01  1.0767255799606708e+01  1.0943650901966402e+01  1.0911643624567883e+01  1.0801519079865484e+01  1.0928313844280122e+01  1.1039020016983425e+01  1.0337397781616401e+01  1.0694076639476751e+01  9.7266169856857090e+00  9.8010283005994694e+00  1.0375411675486832e+01  9.3621037869017343e+00  9.2993544893159150e+00  9.2846375015146894e+00  9.1177108644129081e+00  9.4083600837554524e+00  9.1401887891959923e+00  9.5662833846179041e+00  9.3901503620039151e+00  9.1910896552884047e+00  9.5416908624021826e+00  9.4752606996865918e+00  9.4203447622559580e+00  9.3912832605501002e+00  9.3091517808694437e+00  9.2585699166191020e+00  9.2262367082665797e+00  9.1594255436604985e+00  9.1850180429776564e+00  9.0223944648983121e+00  9.3913878441188352e+00  9.1629485036557607e+00  8.9652612884170946e+00  9.4144060099396540e+00  9.4036883329767011e+00  9.5619592807455103e+00  9.3154726600732385e+00  9.2766018993294033e+00  9.5043318927846094e+00  9.3229925923832671e+00  9.1771938317493618e+00  9.4904865491090700e+00  9.0904794903712247e+00  9.6115338512237418e+00  9.4309375612804445e+00  9.2193412224445304e+00  9.6999965237507855e+00  9.5341549819250417e+00  9.7103275352802836e+00  9.6014117051934544e+00  9.5344668232288328e+00  9.6165033406576725e+00  9.5369717237177589e+00  9.4928082871481063e+00  9.4409972331423724e+00  9.3967810824768545e+00  9.3565224587701739e+00  9.4122897051892451e+00  9.2823284806275002e+00  9.2867519621097063e+00  9.4757709665843262e+00  9.3388127561677141e+00  9.6165858902274142e+00  9.4430588692597546e+00  9.7521359160201531e+00  9.6193387809161663e+00  9.6936119676375974e+00  9.6568728244783291e+00  9.4863323069006249e+00  9.5217103509912899e+00  9.5794878266494390e+00  9.4375600949311451e+00  9.2749170959740326e+00  9.6406453534554153e+00  8.9700937959496567e+00  9.3189064099559253e+00  9.1710407780199468e+00  9.1470341160658286e+00  9.1720612111096518e+00  9.3166612337522139e+00  9.0238493143066645e+00  9.2004984301707751e+00  9.3180405986355552e+00  9.1145506291291429e+00  9.4198704467891226e+00  9.1611943247680809e+00  9.8549848010499321e+00  9.5277729155951096e+00  9.0725928741225665e+00  9.1716390636961744e+00  1.1547746573268331e+01  1.0957623086736623e+01  1.1417863240828698e+01  1.0607448885308758e+01  1.1173573997665821e+01  1.1196386480660269e+01  1.0973264862501022e+01  1.1396583454949758e+01  1.0366255945063710e+01  1.0996372574946227e+01  1.1136655798954392e+01  1.0124549114340761e+01  1.0238093323206241e+01  1.0077963466477664e+01  9.6471482762773988e+00  9.9567365443621654e+00  9.7468178188101522e+00  9.1764788885307222e+00  8.9954010244608718e+00  9.7811335347718753e+00  1.0416377058730697e+01  1.0465390203805629e+01  9.9266999863318439e+00  1.0268051035404250e+01  9.8501169045377246e+00  1.0269795726716341e+01  1.0000579671650511e+01  1.0362914339324462e+01  1.0183427998133986e+01  9.8309548560620197e+00  1.0981819702536688e+01  1.0838001402083412e+01  1.0650160433845816e+01  1.0908471410962713e+01  1.0925879560322606e+01  1.1078539156858284e+01  1.0910232826201382e+01  9.0739871216660077e+00  9.1015677801319210e+00  9.0181173723484225e+00  9.2811052282637512e+00  9.2233518791073301e+00  8.9849019337819946e+00  8.9614313030819464e+00  1.1176668829185212e+01  1.1288364716413149e+01  1.1258213877945600e+01  1.0922193751655305e+01  1.0896175649845095e+01  1.0775272297022115e+01  1.0742648332954571e+01  9.1018370704910243e+00  9.1745504545217109e+00  8.9961805011114837e+00  9.4112798443337553e+00  8.9682965592717938e+00  9.6542586531578269e+00  1.0322029920207264e+01  9.1569253665752512e+00  8.7757904665215829e+00  8.8910406407006430e+00  9.2167855253228552e+00  9.1366702776951350e+00  9.5309281209273191e+00  9.8919243503326388e+00  9.3160929381934228e+00  9.8209900413889990e+00  9.5655634613355272e+00  9.2363088418767401e+00  9.5209952219931697e+00  9.3999534166295238e+00  9.1913788538170209e+00  1.1287418155293354e+01  1.1181579944914734e+01  1.1213587534654641e+01  1.1242478038872818e+01  1.1083974412583368e+01  1.1111074951101438e+01  1.1121657527410250e+01  1.1084752297604947e+01  1.1053888095002407e+01  1.0945390067153340e+01  1.1110621224274968e+01  1.0936836787510178e+01  1.0028110774155909e+01  9.8976765789226508e+00  9.8559218298780209e+00  1.0111590197973909e+01  1.0189232550780217e+01  1.0188006629283498e+01  9.0713235044852016e+00  9.3047618838382657e+00  9.2525104342413425e+00  9.4264404764294465e+00  8.9894124677562122e+00  9.2496298264774612e+00  9.1191907489822022e+00  8.9310118169705088e+00  9.1121637054780873e+00  9.0894278740845103e+00  9.2044109346892480e+00  9.4243093735604866e+00  9.3957964135458454e+00  9.4102368512657808e+00  9.9902018358298967e+00  9.7195022514861886e+00  9.7281901314666506e+00  9.0193491835391981e+00  9.1371146815867856e+00  9.8387701180443301e+00  1.0254084709053975e+01  1.0526711953176271e+01  1.0873947376113117e+01  9.9174318051771522e+00  9.5037824015359060e+00  1.0316191249554537e+01  1.1059372748411187e+01  9.1330555739334081e+00  9.3110383632344735e+00  9.7493871556684031e+00  9.1490391325074594e+00  9.2763050443292485e+00  9.1326292830948983e+00  9.6927655314444312e+00  9.7488524654777127e+00  9.7343798939509849e+00  9.9412649417247216e+00  9.8036513862156625e+00  9.6337451912189263e+00  9.2259497305781011e+00  9.2889316342547925e+00  1.0086579895177451e+01  1.0574083523008072e+01  1.0473101403984012e+01  1.0130659192616003e+01  9.8946177685795682e+00  9.6936121137191691e+00  1.0054169893664975e+01  1.1041102736804216e+01  1.1279532784522143e+01  1.0395586751324695e+01  1.1259156673430731e+01  1.1215304072750975e+01  1.1129761104217435e+01  9.8916391153997747e+00  1.0914919792609890e+01  1.0523520460409582e+01  1.0779925641369521e+01  1.0846117928024757e+01  1.1099471742355574e+01  1.1067067407267038e+01  1.0869341435232867e+01  1.1278300109771193e+01  1.1114052920368014e+01  1.1229878139347957e+01  1.0824835099164556e+01  1.1217834158003793e+01  1.1198810783754078e+01  1.1044156230526106e+01  9.2680881088887048e+00  9.1558856841244296e+00  9.1408565336087495e+00  9.3338381718828121e+00  9.6360942407058516e+00  9.5209740093061068e+00  9.5215945117283951e+00  9.5691124541857047e+00  9.7223827203397821e+00  9.9651257815079539e+00  9.6572217445109807e+00  1.0136000065389716e+01  1.0100732108627881e+01  9.5298051449773080e+00  1.0323642247994176e+01  1.0299428275843429e+01  1.0301512191159247e+01  1.0247653617432768e+01  1.0101896651006600e+01  1.0194616345089225e+01  1.0256010536819881e+01  1.0943374067923500e+01  1.0993508764006300e+01  1.0672351166189427e+01  1.1143512017738141e+01  1.0952370064582640e+01  1.1129889454798816e+01  1.0222855754941277e+01  1.0096616310030530e+01  1.0035931204866710e+01  1.0635040755953863e+01  1.0003396262639543e+01  1.0351650848714739e+01  8.9939928920325443e+00  9.1484882489283166e+00  9.1571598373103704e+00  9.2224757199021656e+00  9.0217622416320946e+00  8.9881380198796208e+00  9.8547459635230421e+00  9.5081563422026374e+00  9.6563368900665623e+00  9.9180953549695996e+00  1.0004768337726096e+01  9.8960385021508497e+00  9.5968995716085406e+00  9.2246726461332287e+00  9.1278686224388412e+00  9.6105217723829028e+00  9.5948974345675104e+00  9.7011755504341597e+00  9.5145399898355993e+00  9.2831094214889109e+00  9.8071915384014137e+00  1.0936775912253735e+01  1.0537809210168289e+01  1.0774301301438920e+01  1.0794355012039118e+01  9.9940455293710126e+00  1.0434185283663329e+01  1.0464335195661798e+01  1.0839753739251043e+01  1.0849824730497383e+01  9.4134633463027306e+00  9.2728318381376784e+00  9.2988556810554890e+00  9.4948840700770401e+00  9.6497949347734995e+00  9.6770248573910838e+00  9.4372403577821604e+00  9.3064322754188584e+00  9.6020973013701294e+00  1.0005448536510485e+01  1.0110402488999986e+01  9.8432533236070512e+00  1.0214102023714970e+01  9.6875498282165680e+00  9.9429968832046427e+00  9.7335515609116410e+00  9.7574304976946777e+00  1.0230887410681595e+01  1.0707545437477135e+01  1.0886334651830202e+01  1.0802940327043787e+01  1.0862574634114349e+01  1.0881276673250797e+01  1.0812998915752740e+01  1.0692079261928011e+01  9.8588480591469612e+00  9.2634064906706595e+00  9.2916848058847421e+00  9.4108522252668703e+00  9.9715565116195304e+00  1.0842804740761796e+01  1.0356697019738917e+01  9.9465277701874637e+00  9.8028688978218046e+00  9.6431937020330238e+00  1.0024404527801659e+01  1.0104821156858087e+01  1.0033214925309723e+01  9.6164764102957214e+00  9.9448678736327452e+00  1.0210209500958575e+01  9.6780396500547852e+00  1.0386484849256240e+01  1.0394389244434590e+01  9.5735012780885480e+00  9.3931119310573816e+00  1.0664540667148239e+01  1.0232345729014023e+01  1.1109979636274115e+01  9.4982982244671668e+00  9.3623229161300916e+00  1.0430776560226466e+01  1.1110989430333101e+01  1.1094259180697069e+01  9.8365095298600327e+00  9.6521111710407741e+00  9.3459685491139108e+00  9.6023906074723619e+00  9.4822969669351380e+00  1.0024638741857341e+01  9.7217356475649677e+00  1.0050553418957925e+01  9.4024371500375139e+00  9.0330605977689284e+00  9.1309871338091160e+00  9.0369832475114968e+00  9.0114281570726344e+00  9.3245670808488832e+00  9.3191502477898815e+00  9.5070823538646820e+00  1.0453795112463899e+01  1.0612364460840794e+01  1.0790683860984778e+01  9.8946609189219359e+00  9.9979627400473632e+00  9.8565833280885418e+00  1.0539887877821954e+01  1.0306112362362100e+01  1.0662203866143486e+01  9.4997888137974940e+00  1.0389720554348655e+01  9.9994186257173467e+00  9.5725358573293580e+00  9.9641226728874770e+00  1.0379418823452161e+01  1.0365218405898272e+01  9.1331889357574259e+00  8.9711507682178411e+00  9.0472002048213174e+00  9.0966668161308135e+00  9.6517905055397026e+00  9.2355180449841257e+00  9.4754880453014412e+00  9.0020729091413205e+00  9.3248510073870694e+00  9.0049064694727932e+00  9.2900975750205141e+00  9.3266073224595498e+00  9.1407061759879209e+00  9.1982832177621550e+00  9.6167221173189485e+00  9.4928997959549477e+00  1.0875402621668469e+01  1.0720636761426958e+01  1.0946400762404734e+01  1.0613878038351766e+01  1.0930428530245040e+01  1.0958618749055375e+01  1.0910926118622378e+01  1.0968462711777210e+01  9.6516156905037302e+00  9.5016907712067269e+00  9.3912697482761054e+00  9.8334510345457478e+00  9.4547636118257525e+00  9.8167406781196913e+00  1.0092909838037064e+01  1.0009152895393806e+01  1.1272403775333085e+01  1.1292318677148401e+01  1.1471193853485545e+01  1.1147628728823040e+01  1.1157249850669183e+01  1.1187311526404146e+01  1.1542190795743275e+01  1.1216588189912240e+01  1.1532849254502976e+01  1.0941737684452727e+01  1.1500892469455662e+01  1.0516691922968160e+01  1.0599820187019278e+01  1.0943547358483464e+01  1.0049735254245027e+01  9.7439366309463562e+00  9.8085936180490272e+00  1.0177284635521817e+01  1.0166254367486831e+01  1.0016051243317904e+01  9.7558667896881541e+00  1.0634414673100114e+01  9.8988231885061921e+00  1.0492848568469654e+01  1.0443542649001762e+01  1.0259724153431828e+01  1.0180220761978713e+01  1.0379890785892039e+01  9.7185554152619602e+00  9.7597959427695606e+00  9.7730611535741634e+00  9.2565370482210874e+00  9.0387623773033301e+00  9.8844693522246345e+00  9.9957365516553374e+00  9.0881908712678499e+00  9.0891758169830847e+00  9.1386103283942060e+00  9.4274657988741968e+00  9.2967670968218119e+00  9.0916485904686013e+00  9.8558454166924605e+00  9.1720820275339108e+00  8.8938535640798868e+00  8.7092322341761079e+00  9.1249044796879506e+00  9.4341299639656242e+00  9.5480850943890623e+00  9.0170327831210582e+00  1.1166024537212051e+01  1.0938556635790160e+01  1.0849901775340115e+01  1.1202679207109995e+01  1.1105606638779644e+01  1.0740223234993339e+01  1.1067826242766698e+01  9.8880205905503296e+00  8.9585634443222357e+00  9.4232925411191033e+00  9.3344957114078007e+00  1.0517288785376193e+01  9.9152297069315605e+00  1.0499412918295020e+01  1.0494041669933248e+01  1.0882418354152104e+01  1.0804357763535586e+01  1.1020314023798480e+01  1.0642923935748286e+01  1.0886269246248048e+01  1.0758924361679032e+01  1.0887621001363232e+01  1.0863772862189684e+01  9.9064313423912935e+00  1.0054599161948204e+01  9.9506033365856759e+00  9.8570208374956128e+00  9.3309376725406175e+00  9.5397432660758987e+00  9.7639975520381856e+00  1.0166710684037337e+01  9.3560742485142896e+00  9.0509652906727638e+00  9.0354160723040220e+00  9.5993140016917060e+00  1.0132874162181583e+01  9.8286207335654368e+00  9.9595231636741328e+00  9.8921874274065740e+00  1.1104534253323166e+01  1.1255164645356366e+01  1.1123859600247261e+01  1.1293782204516290e+01  1.1086287856824933e+01  1.0931188565865025e+01  1.0997087393278470e+01  1.0459960338125343e+01  9.8347790377208710e+00  9.5285170130390870e+00  1.0427388939133202e+01  1.0072788583364293e+01  1.0405850803732601e+01  9.8165557914748351e+00  9.9158510482130584e+00  9.4164200803352305e+00  9.5461929553712714e+00  9.7291402903152449e+00  1.0234722695096588e+01  9.8717259874222965e+00  9.7365980591422083e+00  1.1229874220254054e+01  1.1324885966101032e+01  1.1350983525843944e+01  1.1034774759987775e+01  1.0711355537507965e+01  1.1195960165097615e+01  1.1343589476722480e+01  1.0201663916052881e+01  1.0575905018806939e+01  1.0405679405272718e+01  1.0583370443765343e+01  1.0413759806943776e+01  9.7340679227119296e+00  9.8283448323129257e+00  9.1969753798227352e+00  1.0854760995631674e+01  1.1075746616825034e+01  1.0987217144595421e+01  1.0974995130800298e+01  1.0703352416820781e+01  1.0888866409171673e+01  1.0620509333175340e+01  1.0665400352207678e+01  9.4192984719295723e+00  1.0008744619059428e+01  1.0339204515308246e+01  9.5222975103229981e+00  1.0127728510079784e+01  1.0190710854783731e+01  1.0058486897745315e+01  9.4621371931629881e+00  8.9128232563277390e+00  9.4153145731943919e+00  8.9467546900329431e+00  9.1394938817429647e+00  9.2313677449168523e+00  9.4009737478067343e+00  8.8172777412850110e+00  9.0059474268665110e+00  8.9642625425986662e+00  8.9915856391320759e+00  9.0396549010635550e+00  9.0909380327554725e+00  9.4991492001210904e+00  8.9237678381139922e+00  1.0221829790825620e+01  1.0009625046522391e+01  1.0147519483144269e+01  1.0050744440437860e+01  1.0150237051253841e+01  9.9203175783182100e+00  9.7141160135093418e+00  1.0079194013161251e+01  1.0378529640586725e+01  9.3370958503295522e+00  9.5630469219420249e+00  1.0639457666650321e+01  9.4390770256304375e+00  9.3665533775283567e+00  9.4491467149444492e+00  9.4882185999079010e+00  9.5317553995916775e+00  9.5896263997833291e+00  1.0190667528241649e+01  1.0145777579263941e+01  9.2999854462747145e+00  1.0277094233576538e+01  9.6408923078007067e+00  1.0154713405812618e+01  1.0282262260997816e+01  8.9034820521111708e+00  9.0429433325338469e+00  8.8669769172173449e+00  8.9137757421229171e+00  9.7205452662405047e+00  8.7399291408785285e+00  9.3514489858701193e+00  1.1344328838462447e+01  1.1176979176566530e+01  1.0574565695415888e+01  1.0962542122655513e+01  1.0768068584289740e+01  1.0796712410816582e+01  1.0985645652667392e+01  9.8321997972556332e+00  1.0307859134905325e+01  9.4870364983939126e+00  1.0096282441564298e+01  1.0683814828369419e+01  1.0249030124205092e+01  1.0587678675343390e+01  1.0856780383524798e+01  1.1344771807226561e+01  1.1319839218098780e+01  1.0920974130038994e+01  1.0807350172983275e+01  1.0469363162413366e+01  1.0358624580968812e+01  9.7336001999337913e+00  9.3992759970262902e+00  1.0152159979598958e+01  9.1672129734420658e+00  1.0026966838850544e+01  9.9455244901925894e+00  9.4399610765497144e+00  1.1336005855383604e+01  1.1268996310089301e+01  1.1279333654032175e+01  1.0883946647417059e+01  1.1214841165973539e+01  1.1136007558723191e+01  1.1008520132609041e+01  9.2311600926815149e+00  1.0129155072813688e+01  9.7121373523176899e+00  9.5114646111016086e+00  9.2037798098783981e+00  9.1861350765942458e+00  9.0513987836260572e+00  1.1218112356191261e+01  1.1072893925064033e+01  1.1156991917313835e+01  1.0909081213242592e+01  1.1231619241849604e+01  1.1070676920029804e+01  9.2318337409562528e+00  9.6575528520469085e+00  9.675128337