<?xml version="1.0"?>
<VTKFile type="UnstructuredGrid"  version="0.1"  >
<UnstructuredGrid>
<Piece  NumberOfPoints="1416" NumberOfCells="2750">
<Points>
<DataArray  type="Float64"  NumberOfComponents="3"  format="ascii">10000 0 0  9969.173337331546 784.5909572750695 0  9440.811062854247 337.8086441165926 0  9969.173337331289 -784.5909572783328 0  9119.461671696214 -436.047325602827 0  0 10000 0  784.5909572783328 9969.173337331289 0  436.0473256028242 9119.461671696214 0  -784.5909572750695 9969.173337331546 0  -337.8086441165958 9440.811062854247 0  -10000 0 0  -9969.173337331289 784.5909572783328 0  -9119.461671696214 436.0473256028198 0  -9969.173337331546 -784.5909572750695 0  -9440.811062854247 -337.8086441165943 0  0 -10000 0  -784.5909572783328 -9969.173337331289 0  -436.0473256028237 -9119.461671696215 0  784.5909572750695 -9969.173337331546 0  337.8086441165926 -9440.811062854247 0  1000 0 0  825.5112685286344 233.2965221726817 0  1210.652051555102 178.7580587220347 0  758.3105164940762 -28.48526495347746 0  1257.782871779572 -45.21674913664203 0  853.1788281180126 -255.1195435303564 0  1122.147561214101 -201.3091483794531 0  0 1000 0  -224.5942532759738 814.142362917265 0  28.69055186178868 757.9412270694447 0  -193.2123325114539 1112.182883894174 0  179.7197598806582 1215.220055532552 0  249.331013302979 860.3118401498294 0  -37.93559097040777 1253.495422595633 0  -1000 0 0  -824.851195817888 -232.1783906338463 0  -1210.595922923236 -178.6629795095487 0  -757.4575350892064 29.53393923004192 0  -1257.504710586107 45.16695969320045 0  -851.7633041405784 248.1772228548502 0  -1120.885945661195 200.0563625481669 0  0 -1000 0  249.0340813110638 -842.6509245101993 0  180.0207135594895 -1211.849580489497 0  18.33127838206231 -719.7561862243336 0  -45.09404287730242 -1257.692498219919 0  -252.413804548122 -852.0675834927048 0  -200.9036788868213 -1120.94680153162 0  2000 0 0  1712.325186787277 -225.5688316983879 0  1949.292517575665 -404.0263120746235 0  1758.092477153796 22.27922893435602 0  2220.4090632581 -278.1657736385001 0  2264.940937824128 12.17221832991 0  2022.901005636987 245.209440425862 0  0 2000 0  301.9748726397239 1740.654411212139 0  1.120723757020302e-12 1745.628282521672 0  388.8436927040806 1995.749174184361 0  -265.4266168243358 2269.848489623402 0  -269.5511398733495 1970.956450977053 0  14.70097338908518 2279.104059422062 0  278.8454224092475 2226.372287316351 0  -2000 0 0  -1712.325186787277 225.5688316983877 0  -1949.292517575666 404.026312074623 0  -1758.092477153796 -22.27922893435661 0  -2220.4090632581 278.1657736385 0  -2264.940937824128 -12.1722183299102 0  -2022.901005636987 -245.2094404258624 0  0 -2000 0  -225.5688316983879 -1712.325186787277 0  -404.0263120746235 -1949.292517575665 0  22.17353424893216 -1758.317218185472 0  -278.1657736385001 -2220.4090632581 0  12.17221832991003 -2264.940937824128 0  245.209440425862 -2022.901005636987 0  9876.883405952116 1564.344650397643 0  9413.741379249825 893.2779112941004 0  9723.699203978225 2334.453638552975 0  9281.686298197614 1862.981019420672 0  8978.354407498971 1302.212327038938 0  9510.565162954143 3090.169943741452 0  9171.616356661538 2425.460729511194 0  9238.7953251169 3826.834323641162 0  8786.327444180986 2855.609134985008 0  8910.065241889364 4539.904997384312 0  8576.420325493971 4088.764306853787 0  8462.074319507847 3512.480585282223 0  8526.40164354859 5224.985647146975 0  8380.046298293893 4548.240288757754 0  8090.169943758854 5877.852522911823 0  7683.770966481169 5298.80797610165 0  7874.660194180307 4750.86281684807 0  7604.059656011831 6494.480483288346 0  7228.811045347766 5749.151035153302 0  7071.067811878895 7071.067811852055 0  6882.490700411468 6265.549259424126 0  6494.480483314509 7604.059655989487 0  6558.565613988438 6766.215058556128 0  5877.852522936711 8090.169943740771 0  5735.388635244923 7423.195460774175 0  5981.697728245949 6848.506665974658 0  5224.985647170473 8526.401643534191 0  5307.257413765717 7837.676472666109 0  4539.904997404682 8910.065241878983 0  4613.173854048643 7930.353439924153 0  3826.834323658716 9238.79532510963 0  3877.010908226574 8367.304709936669 0  3090.169943755497 9510.565162949579 0  3395.404259564986 8853.279745804064 0  2334.4536385629 9723.699203975842 0  2848.849836324876 8831.763646725167 0  1564.34465040468 9876.883405951001 0  1666.047411844783 9306.350461236803 0  2135.463838140692 8932.199249345211 0  1138.519892287582 9404.047671358992 0  -1564.344650397643 9876.883405952116 0  -893.2779112941062 9413.741379249825 0  -2334.453638552975 9723.699203978225 0  -1862.981019420678 9281.686298197616 0  -1302.212327038943 8978.354407498971 0  -3090.169943741452 9510.565162954143 0  -2425.460729511197 9171.61635666154 0  -3826.834323641162 9238.7953251169 0  -2855.609134985011 8786.32744418099 0  -4539.904997384312 8910.065241889364 0  -4088.764306853793 8576.420325493971 0  -3512.480585282231 8462.074319507852 0  -5224.985647146975 8526.40164354859 0  -4548.240288757759 8380.046298293893 0  -5877.852522911823 8090.169943758854 0  -5298.807976101652 7683.770966481165 0  -4750.862816848074 7874.660194180306 0  -6494.480483288346 7604.059656011831 0  -5749.151035153306 7228.811045347762 0  -7071.067811852055 7071.067811878895 0  -6265.549259424123 6882.490700411468 0  -7604.059655989487 6494.480483314509 0  -6766.215058556127 6558.565613988435 0  -8090.169943740771 5877.852522936711 0  -7423.195460774181 5735.388635244917 0  -6848.506665974661 5981.697728245946 0  -8526.401643534191 5224.985647170473 0  -7837.676472666112 5307.257413765715 0  -8910.065241878983 4539.904997404682 0  -7930.353439924156 4613.173854048636 0  -9238.79532510963 3826.834323658716 0  -8367.304709936674 3877.010908226573 0  -9510.565162949579 3090.169943755497 0  -8853.279745804064 3395.404259564985 0  -9723.699203975842 2334.4536385629 0  -8831.763646725163 2848.849836324873 0  -9876.883405951001 1564.34465040468 0  -9306.350461236801 1666.047411844779 0  -8932.199249345213 2135.463838140684 0  -9404.047671358992 1138.519892287579 0  -9876.883405952116 -1564.344650397643 0  -9413.741379249826 -893.2779112941001 0  -9723.699203978225 -2334.453638552975 0  -9281.686298197616 -1862.981019420666 0  -8978.354407498975 -1302.212327038933 0  -9510.565162954143 -3090.169943741452 0  -9171.61635666154 -2425.460729511192 0  -9238.7953251169 -3826.834323641162 0  -8786.32744418099 -2855.609134985002 0  -8910.065241889364 -4539.904997384312 0  -8576.420325493969 -4088.764306853795 0  -8462.074319507856 -3512.480585282229 0  -8526.40164354859 -5224.985647146975 0  -8380.046298293893 -4548.240288757762 0  -8090.169943758854 -5877.852522911823 0  -7683.770966481169 -5298.807976101652 0  -7874.660194180307 -4750.862816848075 0  -7604.059656011831 -6494.480483288346 0  -7228.811045347765 -5749.151035153303 0  -7071.067811878895 -7071.067811852055 0  -6882.490700411463 -6265.549259424131 0  -6494.480483314509 -7604.059655989487 0  -6558.565613988436 -6766.215058556136 0  -5877.852522936711 -8090.169943740771 0  -5735.388635244922 -7423.195460774175 0  -5981.697728245952 -6848.506665974656 0  -5224.985647170473 -8526.401643534191 0  -5307.257413765717 -7837.676472666109 0  -4539.904997404682 -8910.065241878983 0  -4613.173854048643 -7930.353439924151 0  -3826.834323658716 -9238.79532510963 0  -3877.010908226574 -8367.304709936669 0  -3090.169943755497 -9510.565162949579 0  -3395.404259564985 -8853.279745804059 0  -2334.4536385629 -9723.699203975842 0  -2848.849836324873 -8831.763646725161 0  -1564.34465040468 -9876.883405951001 0  -1666.047411844782 -9306.350461236796 0  -2135.463838140686 -8932.199249345209 0  -1138.519892287581 -9404.047671358991 0  1564.344650397643 -9876.883405952116 0  893.2779112940983 -9413.741379249826 0  2334.453638552975 -9723.699203978225 0  1862.981019420666 -9281.686298197616 0  1302.212327038932 -8978.354407498975 0  3090.169943741452 -9510.565162954143 0  2425.460729511192 -9171.61635666154 0  3826.834323641162 -9238.7953251169 0  2855.609134985002 -8786.32744418099 0  4539.904997384312 -8910.065241889364 0  4088.764306853795 -8576.420325493969 0  3512.480585282229 -8462.074319507856 0  5224.985647146975 -8526.40164354859 0  4548.240288757762 -8380.046298293893 0  5877.852522911823 -8090.169943758854 0  5298.807976101651 -7683.770966481169 0  4750.862816848074 -7874.660194180306 0  6494.480483288346 -7604.059656011831 0  5749.151035153302 -7228.811045347768 0  7071.067811852055 -7071.067811878895 0  6265.54925942412 -6882.490700411468 0  7604.059655989487 -6494.480483314509 0  6766.215058556126 -6558.56561398844 0  8090.169943740771 -5877.852522936711 0  7423.195460774175 -5735.388635244922 0  6848.506665974652 -5981.697728245953 0  8526.401643534191 -5224.985647170473 0  7837.676472666108 -5307.257413765719 0  8910.065241878983 -4539.904997404682 0  7930.353439924147 -4613.173854048646 0  9238.79532510963 -3826.834323658716 0  8367.304709936667 -3877.010908226576 0  9510.565162949579 -3090.169943755497 0  8853.279745804059 -3395.404259564986 0  9723.699203975842 -2334.4536385629 0  8831.76364672516 -2848.849836324872 0  9876.883405951001 -1564.34465040468 0  9306.350461236796 -1666.047411844782 0  8932.199249345209 -2135.463838140685 0  9404.047671358989 -1138.519892287582 0  3890.561977844704 -3980.209838863507 0  3378.112472111499 -3620.467011831335 0  3865.652261003032 -3450.186185358944 0  3413.999318598406 -4024.335624504108 0  4503.212714161729 -3720.115308817993 0  4398.512117453444 -4241.925396324142 0  3572.533128876644 -4426.573998554646 0  3995.622341410154 -4399.580205031658 0  -3980.209838863506 -3890.561977844704 0  -3620.467011831334 -3378.112472111499 0  -3450.186185358944 -3865.652261003033 0  -4024.335624504107 -3413.999318598408 0  -3720.115308817994 -4503.21271416173 0  -4241.925396324144 -4398.512117453445 0  -4426.573998554645 -3572.533128876645 0  -4399.580205031658 -3995.622341410156 0  3980.209838863507 3890.561977844706 0  3620.467011831334 3378.
[...]
<PointData  Scalars="f_4871"> 
<DataArray  type="Float64"  Name="f_4871"  format="ascii">9.5963606481929968e+00  8.9988496639674285e+00  9.1611522818962765e+00  9.4826869088977954e+00  1.0149945336287379e+01  1.0383764590580251e+01  1.0496436722411126e+01  1.0210915158090554e+01  1.0388350029220952e+01  1.0395548427902945e+01  1.0926816977273022e+01  1.0244542258571615e+01  1.1105331858384170e+01  1.0927927433160201e+01  1.1098053863650316e+01  9.9150924109464142e+00  1.0025846280612473e+01  9.7985099774187407e+00  9.5441001248834283e+00  9.5763352985412062e+00  8.9273115422670308e+00  9.2371072199543356e+00  8.9350884471942056e+00  9.0525606752622156e+00  8.8481556952329381e+00  8.9133074897845610e+00  8.8536669375856309e+00  1.0855396363479478e+01  1.0873347990078216e+01  1.0562004786453524e+01  1.1197330237706630e+01  1.0977454951768784e+01  1.0499358155938651e+01  1.1219255726444683e+01  1.0116690684855518e+01  9.4771446775059207e+00  1.0101940874149831e+01  9.9189874252496253e+00  1.0464037944445561e+01  1.0500076537875806e+01  1.0647284068308119e+01  9.6668335694157026e+00  9.4622775603406275e+00  1.0004019061729696e+01  9.3661135701806888e+00  9.9056990185298677e+00  9.4375250149761172e+00  9.6892676602135719e+00  8.9193233356173494e+00  8.8958174672052674e+00  9.2780570280643975e+00  8.8922736625837562e+00  9.4548211629675709e+00  9.1399775993927843e+00  8.9725388813429241e+00  1.1046490203732665e+01  1.1144522780231416e+01  1.1343821638104846e+01  1.0284801624944064e+01  1.0958590391331180e+01  1.1076400591172135e+01  1.0826287036322022e+01  1.0349494635190073e+01  1.0797119508275268e+01  1.1030084334414420e+01  1.1187962071176209e+01  1.0577217705828373e+01  1.1166383727230917e+01  1.1046032443613027e+01  1.0152722104221487e+01  9.9954244996639439e+00  9.9508000039237814e+00  9.9339236269438569e+00  1.0093346119610599e+01  9.9662712220531304e+00  9.8149648294334444e+00  9.8927576352131688e+00  9.1863694416184938e+00  8.8734265980687042e+00  1.0238926518754107e+01  9.7091900126226207e+00  9.1419314194653207e+00  1.0684026761306846e+01  1.0421694863680218e+01  1.0535505812170523e+01  1.0741745735237949e+01  1.0552518715941382e+01  1.0568776029837988e+01  1.0553264435697688e+01  9.9207411019903642e+00  1.0385042518256288e+01  9.5897706481857021e+00  9.4231767103514645e+00  9.9843248166129932e+00  1.0471619467026580e+01  9.8790707777564091e+00  1.1081854491425910e+01  1.0772248580188178e+01  1.1030376551957334e+01  1.1204588397824029e+01  1.0395512789226736e+01  1.0768555632317707e+01  1.1262039866927912e+01  9.7972944762905847e+00  1.0122863140980153e+01  1.0085630504032364e+01  9.5986551773305813e+00  1.0495877850796182e+01  1.0118818074303237e+01  1.0439891804670884e+01  1.0416511548377548e+01  1.0389988745871788e+01  1.0187526845835821e+01  1.0412495850994492e+01  1.0140993292581141e+01  9.8408542679219320e+00  1.0285110587806559e+01  1.0374417181774984e+01  1.0402055920931067e+01  1.0351206641721630e+01  1.0393993339514726e+01  1.0260558931515460e+01  1.0344616586063896e+01  1.0409460436150058e+01  1.0278731138265110e+01  1.0422450984911629e+01  1.0319897209113515e+01  1.0316041148290642e+01  1.0367331020146976e+01  1.0282668897639565e+01  1.0297078320005495e+01  1.0020680083580581e+01  1.0054770786538688e+01  1.0224490702286664e+01  9.7549622798735651e+00  9.8145358119767128e+00  9.8339784768475056e+00  9.7775378817277261e+00  1.0227596152154723e+01  9.8802833596135784e+00  1.0131996423013897e+01  1.0139169691677901e+01  1.0008814779966171e+01  9.7082879106601041e+00  9.8399228997814170e+00  9.8007030510040689e+00  9.5168284793765316e+00  1.0103726000816547e+01  9.9252378272351969e+00  9.4838923337652297e+00  9.6826301331751381e+00  9.5877161097100654e+00  9.2924297196078207e+00  9.5484404407978278e+00  9.5229057362789149e+00  9.6535272401630827e+00  9.9413410775459816e+00  1.0709649307742739e+01  1.0826289129311242e+01  1.0779076741038505e+01  1.0730979569670886e+01  1.0456016538731868e+01  1.0845892192010362e+01  1.0849717362904824e+01  1.1060147383120443e+01  1.0882581413922869e+01  1.1168348738726010e+01  1.1241563550748252e+01  1.1150027061493834e+01  1.0562296008537935e+01  1.1089518061879149e+01  9.4294386768028708e+00  9.6012782214638861e+00  1.0649748480951898e+01  9.1334555661298449e+00  9.0387855720162413e+00  9.0899825214214864e+00  8.9750077665047296e+00  9.3216231889959342e+00  8.9757224297328104e+00  9.7242077105871818e+00  9.5686565535643773e+00  9.1479208190365799e+00  9.3551903234001834e+00  9.5877240325913426e+00  9.1699496008280512e+00  9.1350781133602421e+00  9.2053505928944954e+00  9.2246346729945401e+00  9.1593446188561245e+00  9.1069672261774368e+00  9.0916284718045102e+00  9.0193665706171018e+00  9.3848951947279442e+00  9.1258276045122333e+00  9.0142584136669921e+00  9.4696394657553427e+00  9.1751098996327887e+00  9.4355561102835441e+00  9.2018529951214685e+00  9.1145242764587593e+00  9.4154219154089276e+00  9.3113958878826644e+00  9.0798997556860375e+00  9.5582104895572222e+00  9.0397410039165234e+00  9.6947775269392178e+00  9.5448871330565233e+00  9.3090836938951504e+00  9.6421555156458307e+00  9.6083287899619414e+00  9.6115950249597990e+00  9.6278219010640544e+00  9.6176517364358372e+00  9.4190828955636974e+00  9.4601828204772129e+00  9.2107707838094459e+00  9.2456464418795434e+00  9.1147800847365517e+00  9.1209276243619541e+00  9.1002818461891533e+00  9.0331841007712157e+00  9.2067279764324432e+00  9.0630495300943323e+00  8.9860549135998085e+00  9.3015235597266503e+00  9.1023648340797791e+00  9.7740636569657973e+00  9.6384041607804622e+00  9.9284896911877745e+00  9.8523964871936460e+00  9.6295608180350651e+00  9.7612494833623007e+00  9.3449945539269521e+00  9.1507087343108591e+00  9.1258135024202360e+00  9.2483393569961851e+00  9.0371503960009409e+00  9.3289964346819119e+00  8.9346310606479182e+00  9.1690929174638178e+00  9.0227775659103351e+00  9.6303787480969358e+00  9.1267216428105140e+00  9.3164528743179851e+00  9.3548066485416168e+00  9.1019907738193044e+00  9.8228401558219325e+00  9.0570186131911417e+00  9.8708005397591929e+00  9.2796641823758090e+00  9.1055586498906163e+00  9.1147399374267781e+00  1.1606090814227120e+01  1.1255040670611313e+01  1.1523730291542366e+01  1.0782771669443141e+01  1.1103427670164880e+01  1.1157843563014564e+01  1.1525491791322848e+01  1.1571615987337744e+01  1.0202273402274397e+01  1.1180544659055492e+01  1.1016590134028666e+01  1.0190651434798417e+01  1.0041761855766532e+01  1.0269150790533029e+01  9.6953778038144058e+00  1.0129282219993714e+01  9.9522171568382820e+00  9.2043259020712931e+00  8.9718152191157223e+00  9.9036163925539711e+00  1.0436987298647020e+01  1.0514240306247087e+01  1.0144262064869935e+01  1.0397327627774441e+01  9.6699751948503234e+00  1.0466912337124569e+01  1.0029321914693286e+01  1.0251215328473641e+01  1.0347257709572617e+01  9.9972030210956415e+00  1.1027526342741883e+01  1.0815975951127845e+01  1.0701504779685715e+01  1.0910050040330228e+01  1.0943217388068398e+01  1.1120897809864280e+01  1.0957072819625060e+01  9.0353076618599086e+00  8.9640140331649754e+00  8.9252350052876697e+00  9.3422612111348879e+00  9.1663436712459436e+00  8.9281574186491213e+00  8.9870659670718105e+00  1.1141843911319361e+01  1.1267972526454512e+01  1.1259503589993059e+01  1.0896799292177930e+01  1.0796656645650950e+01  1.0737558134599064e+01  1.0954366771384040e+01  9.1200852179561682e+00  9.3310584348971179e+00  8.9195935156088133e+00  9.1788135896629601e+00  8.5163826034579468e+00  9.4304953863502679e+00  1.0600405112518636e+01  9.0494866148996671e+00  8.8860519930746396e+00  8.8599589104607333e+00  9.2120091593608908e+00  9.3050055373611222e+00  9.7720197288839756e+00  9.6586399538646752e+00  9.3236442121754308e+00  9.7558683300920528e+00  9.7873524264424141e+00  9.2182713386695703e+00  9.7551196921395888e+00  9.3062717075958084e+00  9.0098191204585163e+00  1.1318947614221614e+01  1.1245216678633318e+01  1.1161315048996270e+01  1.1245502257548427e+01  1.1195498601825461e+01  1.1235865044021805e+01  1.1324888067700744e+01  1.0842380701653260e+01  1.1084562263768774e+01  1.1181853168732493e+01  1.1145120727728731e+01  1.0980592806967469e+01  1.0034042886869109e+01  9.7707660690104881e+00  9.8697274799989589e+00  1.0125325994542633e+01  1.0259091666987901e+01  1.0195205748137205e+01  8.9481260211005917e+00  9.3258692560027221e+00  9.3761006786348915e+00  9.1299662675438977e+00  8.9249082830136288e+00  9.1789680808301952e+00  9.0318892495026120e+00  9.0745580361524141e+00  9.1724003164714745e+00  9.0546479228721033e+00  9.0474670470983938e+00  9.5174345320993137e+00  9.3773094998051594e+00  9.3070761691510810e+00  1.0058805827262640e+01  9.8618683272292689e+00  9.5670349856451917e+00  8.8166130846813200e+00  9.0510827133903202e+00  9.9661539657625280e+00  1.0329273320998476e+01  1.0534508281454690e+01  1.1061041309458123e+01  9.8158682268604700e+00  9.2976624621575557e+00  1.0439995128641243e+01  1.1237939082603495e+01  8.9310154095332130e+00  9.1601915195948393e+00  9.5584497636559860e+00  8.9999279020654797e+00  9.3561975826981243e+00  9.0503132024655493e+00  9.4583981773270072e+00  9.6964104023292581e+00  9.9126715291480334e+00  1.0058911923643988e+01  1.0057280941591083e+01  9.7078774676702864e+00  9.0193836995883938e+00  9.1794781087769977e+00  1.0196877183749081e+01  1.0528624780185551e+01  1.0520985734486660e+01  1.0087620321482570e+01  9.8697243001118355e+00  9.6585120525307513e+00  9.9680996914658255e+00  1.1086882024728174e+01  1.1286351809313501e+01  1.0612027499225670e+01  1.1082553511615597e+01  1.0982273833677841e+01  1.1286953616706251e+01  9.8080005556004135e+00  1.0678877503373934e+01  1.0683643740559617e+01  1.0612321602973227e+01  1.1006005615342161e+01  1.1066990086047589e+01  1.1130980486931920e+01  1.0967387854783132e+01  1.1293683379453755e+01  1.1452234376579735e+01  1.1212219132694401e+01  1.1214468911653356e+01  1.1088157756532038e+01  1.1066344136945547e+01  1.1276841278752425e+01  9.1490656980662504e+00  8.9823766729602248e+00  9.0414861346908690e+00  9.2103200359310406e+00  9.7945682880877616e+00  9.6387132050396023e+00  9.7056051474270291e+00  9.1483495792315992e+00  1.0052023645718842e+01  9.3838774110500740e+00  1.0262187089590990e+01  1.0371974874485717e+01  1.0110054229166591e+01  9.1479601988670627e+00  1.0436658843450401e+01  1.0349837632900357e+01  1.0344784978268510e+01  1.0188920397198462e+01  1.0164800888724221e+01  1.0207829055419159e+01  1.0342291555734887e+01  1.0897230331274898e+01  1.0862450467860707e+01  1.0632650985152001e+01  1.0937528553934001e+01  1.1054374822972388e+01  1.1164304794169952e+01  1.0041266168505597e+01  1.0168701197531533e+01  9.8971498728982699e+00  1.0821466015740263e+01  9.8795040542835331e+00  1.0094701792828070e+01  8.9345097414180206e+00  8.9958408348444578e+00  9.1821174604128135e+00  9.1987345871215425e+00  8.9727916594890260e+00  9.0092327408841335e+00  9.9347068225787378e+00  9.3726496089236644e+00  9.5665405040948119e+00  1.0155323502505276e+01  1.0141511712034106e+01  1.0038630399865827e+01  9.5771534391680451e+00  9.1859849199383561e+00  9.0269752244649712e+00  9.6661520609703597e+00  9.7549026494702034e+00  9.7476459182233501e+00  9.7576702633587722e+00  9.3135649429339278e+00  9.8624399264356963e+00  1.1391474911893713e+01  1.0916851861936349e+01  1.1484507026119404e+01  1.0863153173161519e+01  1.0074004857182432e+01  1.0627093338686358e+01  1.0698347179073291e+01  1.1322605537070267e+01  1.0930781255042191e+01  9.4452046663822582e+00  9.0849289478281889e+00  9.5961081596638103e+00  9.4209158250945855e+00  9.6167731528423754e+00  9.6261416622803555e+00  9.3805997871053197e+00  9.4362460337873024e+00  9.5353434806502584e+00  9.7963421741019179e+00  1.0031322750639495e+01  9.5766353397657031e+00  1.0329211864497235e+01  9.7116073295618524e+00  1.0154356797991277e+01  9.5465319163589513e+00  9.6970536386941273e+00  1.0608619092560476e+01  1.0708793018302266e+01  1.0934661296593298e+01  1.0936180536975973e+01  1.0749320776525646e+01  1.0792793058788027e+01  1.0825394709362351e+01  1.0864180171254946e+01  1.0006599559762623e+01  9.0046544451052934e+00  8.9629190162130588e+00  9.1669959620044352e+00  1.0138669932809632e+01  1.1127360637273565e+01  1.0467779407903835e+01  9.8399514174210410e+00  9.9281653157089789e+00  9.7564019817471390e+00  1.0015094571141194e+01  1.0075249196753562e+01  1.0080786813871645e+01  9.4861084356868570e+00  1.0012200202401308e+01  1.0101632955164936e+01  9.6640014741059783e+00  1.0475943829025098e+01  1.0467276677562953e+01  9.4451391996388985e+00  9.3484035013326192e+00  1.0898668909481726e+01  1.0172687266021132e+01  1.1011690350765027e+01  9.1743244082221160e+00  9.0218063479783233e+00  1.0394777289342020e+01  1.1074728891021206e+01  1.1132751871454698e+01  9.8733109910668784e+00  9.3000258988654334e+00  9.1647823575228315e+00  9.6604088819047060e+00  9.5237101532065740e+00  1.0138862181153756e+01  9.5328857875932922e+00  9.9018582416359990e+00  9.4850692118395550e+00  8.9945253564943268e+00  9.0017893363063415e+00  9.3276630564447540e+00  9.4278801303741790e+00  9.3296656876506994e+00  9.3798275325981297e+00  9.4908210672826883e+00  1.0652930017217050e+01  1.0631264943088947e+01  1.0799732157404549e+01  1.0094166405617518e+01  9.9921428870869580e+00  9.1680430446071686e+00  1.0660795515593302e+01  1.0518416753794620e+01  1.1012228899014616e+01  9.1311028216051131e+00  1.0583673015550978e+01  9.8317595695491047e+00  9.3436189703763990e+00  9.8814406234883609e+00  1.1112084117613675e+01  1.0049842381928222e+01  8.9904102916480575e+00  8.9784503526954236e+00  9.0249893980661771e+00  9.0161959375028182e+00  9.5538204583632957e+00  9.0397532816203245e+00  9.4554570928144610e+00  9.0069279022760345e+00  9.6101014663002253e+00  8.8292350058020403e+00  9.1184318345948103e+00  9.2464492483402267e+00  9.0361471387828107e+00  9.0647061277247083e+00  9.5146753231439529e+00  9.1619906807690619e+00  1.0994511002899152e+01  1.0822366373160619e+01  1.0984093929944411e+01  1.0545396948935844e+01  1.0867626693561505e+01  1.0925883797195338e+01  1.1233851809763935e+01  1.0863230918821177e+01  9.4989850485149976e+00  9.3844607791482506e+00  9.2287995998159040e+00  9.7776500874611774e+00  9.2552356283945372e+00  9.6052375550895981e+00  1.0017988125257290e+01  9.8745882163155922e+00  1.1075819529694151e+01  1.1407167514792091e+01  1.1283566588231910e+01  1.1107815304987698e+01  1.1247330188945895e+01  1.0977721149360068e+01  1.1412100443724254e+01  1.0934169186458162e+01  1.1588474127607135e+01  1.0735461982362523e+01  1.1563770590249865e+01  1.0420254070180524e+01  1.0351009653697366e+01  1.0724826615088839e+01  1.0130822715811551e+01  9.6278196198723887e+00  9.4915715692152904e+00  1.0046835617075724e+01  1.0096113857984420e+01  9.8580958984794318e+00  9.6230681685326687e+00  1.0636799520320611e+01  1.0248738144845976e+01  1.0292662516182864e+01  1.0461121781269823e+01  1.0197790265690058e+01  1.0131694646027006e+01  1.0381318023921983e+01  9.7487063788909154e+00  9.7374071797918091e+00  9.9231781796116039e+00  9.1473594468669095e+00  9.0013287845232881e+00  9.7332669105258613e+00  1.0095362818711164e+01  9.0383196898430391e+00  9.0453834920530678e+00  9.1621784399777528e+00  9.2881677309221757e+00  9.0244178961939188e+00  9.1459823187736990e+00  9.6215830042034938e+00  9.5317260624307369e+00  8.8681553594706592e+00  8.9454624747583171e+00  9.2272252327888662e+00  9.4626412266600699e+00  9.5791948772118296e+00  9.3320841641277763e+00  1.1228913488616419e+01  1.1011116429313768e+01  1.0672310179948322e+01  1.1183077057034195e+01  1.1072374136312170e+01  1.0642164022203414e+01  1.1139064368039392e+01  9.9162356394956817e+00  8.9773681344192422e+00  9.1351762399773353e+00  9.5585885309295637e+00  1.0732122013835465e+01  9.8557603164173990e+00  1.0640730844136819e+01  1.0522152714411765e+01  1.0933763203396333e+01  1.0626790283340553e+01  1.1334430928828933e+01  1.0216508875144292e+01  1.0829054643111757e+01  1.0853278822594984e+01  1.0800638486820514e+01  1.0815570014454734e+01  9.8271345997329700e+00  1.0076356522356692e+01  9.9034198375494977e+00  9.8423054526952320e+00  9.1939791545188143e+00  9.5327405951748716e+00  9.7046079994793981e+00  9.9784931552565439e+00  9.1243354093150302e+00  8.9661965784888871e+00  8.9141712059031946e+00  9.3231290762135774e+00  1.0233732814406123e+01  9.9214967807224603e+00  1.0119774571030808e+01  1.0106084699384210e+01  1.0875811168769605e+01  1.1227219437840684e+01  1.1003339488661606e+01  1.1349647927507718e+01  1.0897105095041505e+01  1.0989608139402200e+01  1.0944332912674339e+01  1.0586421019805217e+01  9.7011317792182226e+00  9.3219360521469650e+00  1.0532926867674313e+01  1.0115129430936751e+01  1.0668702457216114e+01  9.7277470764220997e+00  1.0072810649891249e+01  9.2021839584169580e+00  9.6816692963841042e+00  9.6672298515035155e+00  1.0114513629634523e+01  9.8000874120185930e+00  9.7761459120625513e+00  1.1282222608005799e+01  1.1338917854223633e+01  1.1490006237297992e+01  1.1099742533247515e+01  1.0510934811955090e+01  1.1261836339824246e+01  1.1407303941790239e+01  1.0219936229204210e+01  1.0594604795703789e+01  1.0352654218194161e+01  1.0664552687199430e+01  1.0493939637987854e+01  9.8081371168526381e+00  1.0104664082854889e+01  9.0420322753658340e+00  1.0817891090114177e+01  1.0904675161100771e+01  1.1024952199042806e+01  1.0910986629407182e+01  1.0322526548117089e+01  1.1060427009836269e+01  1.0797408252199444e+01  1.1060710026543642e+01  9.2501306512737980e+00  1.0162373665586754e+01  1.0305416102649545e+01  9.1060362414323546e+00  1.0109266703139498e+01  1.0364259360061890e+01  1.0150365244106867e+01  9.1401497013759236e+00  8.9820833839886625e+00  9.5556587233624732e+00  9.0356658522779671e+00  9.0949996419220032e+00  9.0978432114296837e+00  9.3931938187476760e+00  9.0194959322939656e+00  9.0667694550714284e+00  9.0683236934412861e+00  9.1223399959243121e+00  9.1211171045846360e+00  8.9290669146339336e+00  9.2362247388583238e+00  8.8765587376809592e+00  1.0516179922617145e+01  1.0015423606349685e+01  1.0262733606461536e+01  1.0005730446392430e+01  1.0129920127263800e+01  1.0090090270706888e+01  9.2661175328447545e+00  1.0461998436335827e+01  1.0015380051732199e+01  8.9951513703768331e+00  9.3681082599753278e+00  1.0592496910664154e+01  9.1565983456146931e+00  9.4873229398011656e+00  9.2036381779336693e+00  9.5073846006555538e+00  9.3898094487548125e+00  9.6781725490389405e+00  1.0113890321837978e+01  1.0173481909860079e+01  9.3957256970125851e+00  1.0606561629104370e+01  9.5527880219849717e+00  1.0102483693116833e+01  1.0194429657421271e+01  9.0348108442081578e+00  9.0127907747738032e+00  8.9094623944976750e+00  8.9853591188497184e+00  9.8030242733436044e+00  9.0542136318374755e+00  9.5246569775700447e+00  1.1457214926815775e+01  1.1089843325139897e+01  1.0504192551806307e+01  1.0912366724718984e+01  1.0915267055811904e+01  1.0766553487434601e+01  1.1063343104557624e+01  9.9925261023524712e+00  1.0252975962944522e+01  9.5401961528070984e+00  1.0220106162614524e+01  1.0716375700057098e+01  1.0149239144315201e+01  1.0547809876395062e+01  1.0758302648826191e+01  1.1454393496295932e+01  1.1360682799156145e+01  1.1040582591677442e+01  1.0713319944003317e+01  1.0341620098266223e+01  1.0369681871309917e+01  9.7956143364306190e+00  9.1266650165689196e+00  1.0117760009025925e+01  9.1148792026806440e+00  1.0082197892971200e+01  1.0014544224064991e+01  9.7255219846960408e+00  1.1278996168202895e+01  1.1491631160334279e+01  1.1297993221310971e+01  1.1125654768116982e+01  1.1167643569562781e+01  1.0985779579878759e+01  1.1153042244757959e+01  9.0517570186553247e+00  1.0357098103458792e+01  9.6593828315349182e+00  9.6400496632352173e+00  8.9735708810838180e+00  9.0109054165627427e+00  8.9845386966737824e+00  1.1407993363091540e+01  1.1134098825707774e+01  1.1055992310905241e+01  1.0854925048323325e+01  1.1224232427968477e+01  1.1182890770895089e+01  9.1707624151473013e+00  9.6901406202983509e+00  9.9754607115021