<?xml version="1.0"?>
<VTKFile type="UnstructuredGrid"  version="0.1"  >
<UnstructuredGrid>
<Piece  NumberOfPoints="1416" NumberOfCells="2750">
<Points>
<DataArray  type="Float64"  NumberOfComponents="3"  format="ascii">10000 0 0  9969.173337331546 784.5909572750695 0  9440.811062854247 337.8086441165926 0  9969.173337331289 -784.5909572783328 0  9119.461671696214 -436.047325602827 0  0 10000 0  784.5909572783328 9969.173337331289 0  436.0473256028242 9119.461671696214 0  -784.5909572750695 9969.173337331546 0  -337.8086441165958 9440.811062854247 0  -10000 0 0  -9969.173337331289 784.5909572783328 0  -9119.461671696214 436.0473256028198 0  -9969.173337331546 -784.5909572750695 0  -9440.811062854247 -337.8086441165943 0  0 -10000 0  -784.5909572783328 -9969.173337331289 0  -436.0473256028237 -9119.461671696215 0  784.5909572750695 -9969.173337331546 0  337.8086441165926 -9440.811062854247 0  1000 0 0  825.5112685286344 233.2965221726817 0  1210.652051555102 178.7580587220347 0  758.3105164940762 -28.48526495347746 0  1257.782871779572 -45.21674913664203 0  853.1788281180126 -255.1195435303564 0  1122.147561214101 -201.3091483794531 0  0 1000 0  -224.5942532759738 814.142362917265 0  28.69055186178868 757.9412270694447 0  -193.2123325114539 1112.182883894174 0  179.7197598806582 1215.220055532552 0  249.331013302979 860.3118401498294 0  -37.93559097040777 1253.495422595633 0  -1000 0 0  -824.851195817888 -232.1783906338463 0  -1210.595922923236 -178.6629795095487 0  -757.4575350892064 29.53393923004192 0  -1257.504710586107 45.16695969320045 0  -851.7633041405784 248.1772228548502 0  -1120.885945661195 200.0563625481669 0  0 -1000 0  249.0340813110638 -842.6509245101993 0  180.0207135594895 -1211.849580489497 0  18.33127838206231 -719.7561862243336 0  -45.09404287730242 -1257.692498219919 0  -252.413804548122 -852.0675834927048 0  -200.9036788868213 -1120.94680153162 0  2000 0 0  1712.325186787277 -225.5688316983879 0  1949.292517575665 -404.0263120746235 0  1758.092477153796 22.27922893435602 0  2220.4090632581 -278.1657736385001 0  2264.940937824128 12.17221832991 0  2022.901005636987 245.209440425862 0  0 2000 0  301.9748726397239 1740.654411212139 0  1.120723757020302e-12 1745.628282521672 0  388.8436927040806 1995.749174184361 0  -265.4266168243358 2269.848489623402 0  -269.5511398733495 1970.956450977053 0  14.70097338908518 2279.104059422062 0  278.8454224092475 2226.372287316351 0  -2000 0 0  -1712.325186787277 225.5688316983877 0  -1949.292517575666 404.026312074623 0  -1758.092477153796 -22.27922893435661 0  -2220.4090632581 278.1657736385 0  -2264.940937824128 -12.1722183299102 0  -2022.901005636987 -245.2094404258624 0  0 -2000 0  -225.5688316983879 -1712.325186787277 0  -404.0263120746235 -1949.292517575665 0  22.17353424893216 -1758.317218185472 0  -278.1657736385001 -2220.4090632581 0  12.17221832991003 -2264.940937824128 0  245.209440425862 -2022.901005636987 0  9876.883405952116 1564.344650397643 0  9413.741379249825 893.2779112941004 0  9723.699203978225 2334.453638552975 0  9281.686298197614 1862.981019420672 0  8978.354407498971 1302.212327038938 0  9510.565162954143 3090.169943741452 0  9171.616356661538 2425.460729511194 0  9238.7953251169 3826.834323641162 0  8786.327444180986 2855.609134985008 0  8910.065241889364 4539.904997384312 0  8576.420325493971 4088.764306853787 0  8462.074319507847 3512.480585282223 0  8526.40164354859 5224.985647146975 0  8380.046298293893 4548.240288757754 0  8090.169943758854 5877.852522911823 0  7683.770966481169 5298.80797610165 0  7874.660194180307 4750.86281684807 0  7604.059656011831 6494.480483288346 0  7228.811045347766 5749.151035153302 0  7071.067811878895 7071.067811852055 0  6882.490700411468 6265.549259424126 0  6494.480483314509 7604.059655989487 0  6558.565613988438 6766.215058556128 0  5877.852522936711 8090.169943740771 0  5735.388635244923 7423.195460774175 0  5981.697728245949 6848.506665974658 0  5224.985647170473 8526.401643534191 0  5307.257413765717 7837.676472666109 0  4539.904997404682 8910.065241878983 0  4613.173854048643 7930.353439924153 0  3826.834323658716 9238.79532510963 0  3877.010908226574 8367.304709936669 0  3090.169943755497 9510.565162949579 0  3395.404259564986 8853.279745804064 0  2334.4536385629 9723.699203975842 0  2848.849836324876 8831.763646725167 0  1564.34465040468 9876.883405951001 0  1666.047411844783 9306.350461236803 0  2135.463838140692 8932.199249345211 0  1138.519892287582 9404.047671358992 0  -1564.344650397643 9876.883405952116 0  -893.2779112941062 9413.741379249825 0  -2334.453638552975 9723.699203978225 0  -1862.981019420678 9281.686298197616 0  -1302.212327038943 8978.354407498971 0  -3090.169943741452 9510.565162954143 0  -2425.460729511197 9171.61635666154 0  -3826.834323641162 9238.7953251169 0  -2855.609134985011 8786.32744418099 0  -4539.904997384312 8910.065241889364 0  -4088.764306853793 8576.420325493971 0  -3512.480585282231 8462.074319507852 0  -5224.985647146975 8526.40164354859 0  -4548.240288757759 8380.046298293893 0  -5877.852522911823 8090.169943758854 0  -5298.807976101652 7683.770966481165 0  -4750.862816848074 7874.660194180306 0  -6494.480483288346 7604.059656011831 0  -5749.151035153306 7228.811045347762 0  -7071.067811852055 7071.067811878895 0  -6265.549259424123 6882.490700411468 0  -7604.059655989487 6494.480483314509 0  -6766.215058556127 6558.565613988435 0  -8090.169943740771 5877.852522936711 0  -7423.195460774181 5735.388635244917 0  -6848.506665974661 5981.697728245946 0  -8526.401643534191 5224.985647170473 0  -7837.676472666112 5307.257413765715 0  -8910.065241878983 4539.904997404682 0  -7930.353439924156 4613.173854048636 0  -9238.79532510963 3826.834323658716 0  -8367.304709936674 3877.010908226573 0  -9510.565162949579 3090.169943755497 0  -8853.279745804064 3395.404259564985 0  -9723.699203975842 2334.4536385629 0  -8831.763646725163 2848.849836324873 0  -9876.883405951001 1564.34465040468 0  -9306.350461236801 1666.047411844779 0  -8932.199249345213 2135.463838140684 0  -9404.047671358992 1138.519892287579 0  -9876.883405952116 -1564.344650397643 0  -9413.741379249826 -893.2779112941001 0  -9723.699203978225 -2334.453638552975 0  -9281.686298197616 -1862.981019420666 0  -8978.354407498975 -1302.212327038933 0  -9510.565162954143 -3090.169943741452 0  -9171.61635666154 -2425.460729511192 0  -9238.7953251169 -3826.834323641162 0  -8786.32744418099 -2855.609134985002 0  -8910.065241889364 -4539.904997384312 0  -8576.420325493969 -4088.764306853795 0  -8462.074319507856 -3512.480585282229 0  -8526.40164354859 -5224.985647146975 0  -8380.046298293893 -4548.240288757762 0  -8090.169943758854 -5877.852522911823 0  -7683.770966481169 -5298.807976101652 0  -7874.660194180307 -4750.862816848075 0  -7604.059656011831 -6494.480483288346 0  -7228.811045347765 -5749.151035153303 0  -7071.067811878895 -7071.067811852055 0  -6882.490700411463 -6265.549259424131 0  -6494.480483314509 -7604.059655989487 0  -6558.565613988436 -6766.215058556136 0  -5877.852522936711 -8090.169943740771 0  -5735.388635244922 -7423.195460774175 0  -5981.697728245952 -6848.506665974656 0  -5224.985647170473 -8526.401643534191 0  -5307.257413765717 -7837.676472666109 0  -4539.904997404682 -8910.065241878983 0  -4613.173854048643 -7930.353439924151 0  -3826.834323658716 -9238.79532510963 0  -3877.010908226574 -8367.304709936669 0  -3090.169943755497 -9510.565162949579 0  -3395.404259564985 -8853.279745804059 0  -2334.4536385629 -9723.699203975842 0  -2848.849836324873 -8831.763646725161 0  -1564.34465040468 -9876.883405951001 0  -1666.047411844782 -9306.350461236796 0  -2135.463838140686 -8932.199249345209 0  -1138.519892287581 -9404.047671358991 0  1564.344650397643 -9876.883405952116 0  893.2779112940983 -9413.741379249826 0  2334.453638552975 -9723.699203978225 0  1862.981019420666 -9281.686298197616 0  1302.212327038932 -8978.354407498975 0  3090.169943741452 -9510.565162954143 0  2425.460729511192 -9171.61635666154 0  3826.834323641162 -9238.7953251169 0  2855.609134985002 -8786.32744418099 0  4539.904997384312 -8910.065241889364 0  4088.764306853795 -8576.420325493969 0  3512.480585282229 -8462.074319507856 0  5224.985647146975 -8526.40164354859 0  4548.240288757762 -8380.046298293893 0  5877.852522911823 -8090.169943758854 0  5298.807976101651 -7683.770966481169 0  4750.862816848074 -7874.660194180306 0  6494.480483288346 -7604.059656011831 0  5749.151035153302 -7228.811045347768 0  7071.067811852055 -7071.067811878895 0  6265.54925942412 -6882.490700411468 0  7604.059655989487 -6494.480483314509 0  6766.215058556126 -6558.56561398844 0  8090.169943740771 -5877.852522936711 0  7423.195460774175 -5735.388635244922 0  6848.506665974652 -5981.697728245953 0  8526.401643534191 -5224.985647170473 0  7837.676472666108 -5307.257413765719 0  8910.065241878983 -4539.904997404682 0  7930.353439924147 -4613.173854048646 0  9238.79532510963 -3826.834323658716 0  8367.304709936667 -3877.010908226576 0  9510.565162949579 -3090.169943755497 0  8853.279745804059 -3395.404259564986 0  9723.699203975842 -2334.4536385629 0  8831.76364672516 -2848.849836324872 0  9876.883405951001 -1564.34465040468 0  9306.350461236796 -1666.047411844782 0  8932.199249345209 -2135.463838140685 0  9404.047671358989 -1138.519892287582 0  3890.561977844704 -3980.209838863507 0  3378.112472111499 -3620.467011831335 0  3865.652261003032 -3450.186185358944 0  3413.999318598406 -4024.335624504108 0  4503.212714161729 -3720.115308817993 0  4398.512117453444 -4241.925396324142 0  3572.533128876644 -4426.573998554646 0  3995.622341410154 -4399.580205031658 0  -3980.209838863506 -3890.561977844704 0  -3620.467011831334 -3378.112472111499 0  -3450.186185358944 -3865.652261003033 0  -4024.335624504107 -3413.999318598408 0  -3720.115308817994 -4503.21271416173 0  -4241.925396324144 -4398.512117453445 0  -4426.573998554645 -3572.533128876645 0  -4399.580205031658 -3995.622341410156 0  3980.209838863507 3890.561977844706 0  3620.467011831334 3378.
[...]
<PointData  Scalars="f_2180"> 
<DataArray  type="Float64"  Name="f_2180"  format="ascii">9.6126671382621147e+00  9.4433884669620483e+00  9.3745032878449166e+00  9.8267432258857337e+00  9.7753607572269683e+00  1.0238224250003706e+01  1.0143732272693605e+01  9.9745888702470662e+00  1.0204977477400613e+01  1.0109074848710392e+01  1.0660206383325493e+01  1.0511268649691036e+01  1.0712528808957504e+01  1.0686453695788293e+01  1.0721899841478889e+01  9.8097779712812585e+00  9.7399775792812751e+00  9.5902437276595656e+00  9.7814436795144957e+00  9.7198267849631002e+00  9.3095506329643243e+00  9.6593230755954842e+00  9.2340398658569782e+00  9.4813814777215022e+00  9.1346560489448176e+00  9.3266666288003393e+00  9.1944707686941172e+00  1.1130283067822672e+01  1.1128750912129155e+01  1.0918912249535838e+01  1.1269188962431588e+01  1.1136442867794072e+01  1.0899134728848175e+01  1.1220701435318290e+01  1.0331343601904500e+01  9.8845418938783265e+00  1.0072120882764889e+01  1.0303746901069239e+01  1.0484410833403794e+01  1.0706673206895472e+01  1.0713407125705604e+01  9.7090095267266143e+00  9.6736861916703099e+00  9.9161912638041532e+00  9.5989058425241716e+00  9.8558610758297132e+00  9.5319783161193445e+00  9.6898165439678170e+00  9.2003505927480234e+00  9.2463291788322000e+00  9.6602560248304137e+00  9.0774606298470282e+00  9.7434066968512738e+00  9.3858450531983699e+00  9.0387679654557083e+00  1.0817217792389904e+01  1.0803348353768007e+01  1.0984494384295710e+01  1.0451893008751055e+01  1.0882977500719356e+01  1.0941283329989327e+01  1.0740981464696242e+01  1.0482786495067437e+01  1.0561120570245455e+01  1.0847481711554330e+01  1.1030069335840071e+01  1.0465245227327280e+01  1.0945303780782881e+01  1.0670963590133020e+01  1.0109131726322667e+01  1.0042803279281030e+01  1.0026835780406046e+01  1.0054606018139461e+01  1.0067121201642243e+01  1.0060979293061756e+01  9.9525306534230555e+00  9.9505774854405988e+00  9.6271261626370670e+00  9.3186430071253934e+00  1.0007103140105905e+01  9.7383651156039281e+00  9.3746448026762845e+00  1.0262125114199760e+01  1.0055217431929002e+01  1.0252860590058365e+01  1.0236242397300618e+01  1.0085416847468291e+01  1.0087254419553259e+01  1.0173839469984435e+01  9.9401622033714023e+00  9.9602338561460453e+00  9.9429663470272853e+00  9.8022508140464506e+00  9.8012816671688565e+00  1.0136365697791788e+01  9.9271908110006564e+00  1.0341246739737722e+01  1.0178172312661424e+01  1.0381624739192402e+01  1.0349465891408119e+01  1.0240456330657892e+01  1.0290208908393604e+01  1.0394383501425375e+01  1.0018939319353876e+01  1.0098426090479135e+01  9.8670606006506194e+00  9.7994305489499638e+00  9.8102331303018637e+00  9.6318676982267650e+00  9.8041185730175915e+00  9.6750360450444237e+00  9.8404476672754981e+00  9.6134420882593048e+00  9.9572703324356944e+00  9.7863263626762578e+00  9.5916827140650494e+00  9.9279552711353940e+00  1.0207072286861003e+01  1.0077368838802975e+01  1.0258844192451862e+01  1.0120972979194422e+01  9.8768194812933512e+00  1.0374876940647489e+01  1.0242691611343977e+01  1.0429983751819471e+01  1.0340470074777285e+01  1.0385029288296421e+01  1.0393070969728612e+01  1.0406352696873579e+01  1.0288061164433181e+01  1.0338359560609407e+01  1.0181547623028610e+01  1.0170268582496895e+01  1.0261377401377395e+01  1.0092180450932153e+01  1.0073292367342640e+01  1.0007372517217224e+01  9.9960707301978324e+00  9.9161605321415802e+00  9.9216562256549476e+00  9.8153679140141783e+00  9.7589967328768701e+00  9.8273699065799871e+00  9.7264076711246599e+00  9.6779784280490304e+00  9.6947070554973678e+00  9.5479288254549157e+00  9.7367270217068409e+00  9.5750662258560943e+00  9.8269197934511521e+00  9.6825454935156596e+00  1.0006385348198274e+01  9.7701137661535000e+00  1.0268798576454239e+01  1.0208529780079074e+01  1.0036612934012025e+01  1.0417629003161309e+01  1.0701018398091868e+01  1.0714504913694565e+01  1.0766079434650774e+01  1.0763561486413288e+01  1.0730569990676422e+01  1.0839436269087333e+01  1.0835410361813564e+01  1.0846788883880272e+01  1.0929606990556946e+01  1.0674194714313236e+01  1.0792023469933985e+01  1.0948850509369219e+01  1.0308475608952639e+01  1.0577482921135713e+01  9.8699643419457104e+00  9.9101246720815066e+00  1.0323267094209019e+01  9.5656331390200400e+00  9.5095149990859902e+00  9.4793885324942213e+00  9.3342726997972072e+00  9.5538778410180072e+00  9.3456868502716492e+00  9.6682556337731214e+00  9.5165144021311736e+00  9.3686105392433063e+00  9.6837952327458598e+00  9.5928151454090997e+00  9.6392910654612773e+00  9.5493527338622126e+00  9.5908997644493308e+00  9.4816971434429451e+00  9.5411399963457271e+00  9.4638716546957493e+00  9.5037151462535050e+00  9.3727212041652344e+00  9.6000992867833777e+00  9.4276623700677309e+00  9.3044907658104190e+00  9.5344136990362287e+00  9.6530117027494331e+00  9.6935480773007221e+00  9.5647830588249239e+00  9.5385068641649013e+00  9.6577126443659456e+00  9.4754727457684371e+00  9.4306103408379993e+00  9.4719398437902971e+00  9.3017807950078399e+00  9.5503888645314419e+00  9.4031247020321480e+00  9.2908580282197324e+00  9.6165471648177725e+00  9.4693984150742860e+00  9.6497340485212000e+00  9.5089827867676338e+00  9.4598465650515937e+00  9.6542873889646561e+00  9.4989040220093806e+00  9.6554233066040158e+00  9.5198445176011504e+00  9.6493194281040893e+00  9.5424929236916114e+00  9.6489204497972896e+00  9.5362729877435957e+00  9.5097519262159818e+00  9.6287602921729292e+00  9.5375238295993086e+00  9.6098108546128849e+00  9.4759765697089549e+00  9.6078636122578587e+00  9.4523412575760020e+00  9.6193885398491812e+00  9.4940516580377690e+00  9.6506974783205894e+00  9.4570449764172810e+00  9.7769211920071584e+00  9.6568896217282365e+00  9.4940986610028713e+00  9.7588240120556424e+00  9.1962555565590840e+00  9.6847053149119304e+00  9.3553861559234672e+00  9.3226442547768702e+00  9.2835968919232190e+00  9.2892378903741104e+00  9.0941165728568674e+00  9.1917744674647004e+00  9.1678253577863167e+00  9.0646369647387228e+00  9.6609220712340527e+00  8.9370300667953710e+00  9.8415238805276317e+00  9.2971412121934325e+00  8.8230765140573357e+00  8.9729307454714320e+00  1.1203676413283519e+01  1.0864223341293398e+01  1.1297685786516178e+01  1.0632294489186238e+01  1.1188333221570272e+01  1.1146846033978459e+01  1.0810573295611761e+01  1.1087447318653595e+01  1.0311649668254601e+01  1.0752041676490556e+01  1.1048322870211305e+01  1.0257065009491360e+01  1.0609899902518730e+01  1.0170342848048522e+01  9.9167008048054761e+00  1.0017789850049294e+01  9.6439963400323769e+00  9.3866624784268087e+00  9.2972816213398861e+00  9.6368160261453699e+00  1.0080857243597913e+01  1.0167545398056854e+01  9.7273187050023591e+00  1.0111991459977665e+01  9.7853483640882928e+00  1.0000838318587430e+01  1.0028598091382479e+01  1.0233200519607658e+01  9.9395387515937408e+00  9.7848774656825270e+00  1.0807607401808632e+01  1.0768658266821367e+01  1.0570976459441352e+01  1.0889212766736769e+01  1.0997360329960870e+01  1.1005308414920751e+01  1.0766509763903809e+01  8.9150198326866974e+00  9.1244638030032768e+00  8.7380323740917767e+00  9.3619332083595150e+00  9.4191541472618052e+00  8.9344926176391137e+00  8.7405677207292776e+00  1.1228144012658614e+01  1.1243702390839488e+01  1.1203852595616032e+01  1.1056537227266769e+01  1.0954549987056255e+01  1.0938346273692561e+01  1.0987490088372878e+01  9.5648463549588740e+00  9.3574228957015890e+00  9.2878386244765281e+00  9.6498586415992484e+00  9.3054694512253455e+00  1.0002833563595516e+01  1.0402243057326137e+01  9.3272757766730336e+00  9.0087505012535942e+00  9.1079422811121571e+00  9.3880261973617554e+00  9.2635951210739869e+00  9.6842066716944881e+00  9.8524864514035624e+00  9.3306526070670603e+00  9.4183596151071534e+00  9.5470830755151130e+00  9.1322375024573503e+00  9.5778929811978291e+00  9.3514244558300117e+00  9.0115610104029127e+00  1.1302823476258300e+01  1.0923575188751872e+01  1.1205391254080798e+01  1.1301840516862107e+01  1.1308591728168082e+01  1.1416799910207498e+01  1.1005737065836602e+01  1.1100771766784513e+01  1.1016223085472788e+01  1.0910423117842859e+01  1.0908750164169565e+01  1.0820035405547353e+01  1.0073342605901590e+01  9.8786408846994895e+00  9.9718175245093121e+00  1.0050551230079822e+01  1.0171774181379497e+01  1.0119901746418968e+01  9.3371266866566671e+00  9.5051652241964408e+00  9.5754116486550434e+00  9.4588408879697941e+00  9.1397033350282193e+00  9.2438157670568284e+00  9.2146780618666035e+00  9.1241617019287506e+00  9.1516063669950114e+00  9.3085475645357381e+00  9.3713062798217894e+00  9.2858823804970516e+00  9.1849503907532508e+00  9.5828137642028999e+00  1.0119252260014004e+01  9.8193617536013367e+00  9.9297095976656529e+00  9.4164625862488567e+00  9.3099826643746955e+00  9.6988743995347360e+00  1.0484125465443627e+01  1.0745183907113159e+01  1.0893798641280286e+01  1.0265499581783075e+01  9.8425166165465168e+00  1.0320908177514623e+01  1.0836672139024094e+01  9.4514282548990760e+00  9.5589006956284273e+00  9.9028678788230540e+00  9.3855934335375526e+00  9.4017752946963267e+00  9.3547737369893369e+00  9.8356955550122169e+00  9.4622122833682933e+00  9.5813809844538582e+00  9.5705493190449520e+00  9.5947364864497917e+00  9.4719541682718003e+00  9.2676003504247877e+00  9.3216528889324337e+00  1.0130368567561066e+01  1.0592533687865213e+01  1.0465383577980949e+01  1.0329066479527214e+01  1.0111572816193117e+01  9.7337479719264195e+00  1.0044509365305712e+01  1.0856479246548265e+01  1.1079822135404383e+01  1.0368301786841299e+01  1.1186011547012335e+01  1.1169853147393454e+01  1.0860876996820574e+01  9.9003574622901294e+00  1.1020366339955043e+01  1.0548646001598611e+01  1.0918141136706717e+01  1.0740806392680186e+01  1.1071111981922893e+01  1.1128953689715207e+01  1.1066442883049236e+01  1.1182938592572606e+01  1.0872782114556822e+01  1.1231275663541091e+01  1.0591444933134518e+01  1.1321910096090972e+01  1.1304621436947203e+01  1.0829804954176387e+01  9.4898692568298966e+00  9.3928136130424331e+00  9.3836809361368836e+00  9.4658021434072754e+00  9.6093545907949505e+00  9.5996436833922587e+00  9.5657016393064929e+00  9.7741720137448258e+00  9.6595921349984017e+00  9.9817978122792770e+00  9.6258563525569425e+00  1.0206061360909553e+01  1.0160419146343763e+01  9.6964274068521839e+00  1.0336946512786440e+01  1.0337932981411559e+01  1.0385605206843239e+01  1.0270335360710886e+01  1.0262770891852531e+01  1.0300196030026836e+01  1.0262599907420583e+01  1.1065058846959928e+01  1.0982532907047466e+01  1.0916603186680456e+01  1.1085636554317976e+01  1.1140746384357806e+01  1.1266963167940675e+01  1.0190691326663735e+01  9.8594727906733279e+00  9.9410921074758907e+00  1.0413117455292587e+01  1.0084757403894180e+01  1.0528387672190881e+01  9.2838267032286996e+00  9.3738023419055221e+00  9.3868063154423425e+00  9.3775460938679700e+00  9.2438260373226822e+00  9.2603648926269475e+00  9.8821799522265081e+00  9.6049747010273894e+00  9.6039194209134564e+00  1.0013795713446902e+01  9.9587784420528589e+00  9.9544677340666325e+00  9.6555319206928516e+00  9.1605434783659412e+00  9.2112455345883930e+00  9.5781920677757597e+00  9.6784358541679349e+00  9.7702284401894595e+00  9.6146933300875563e+00  9.4464570754935817e+00  9.8110030661833481e+00  1.0645364051186688e+01  1.0593106722527709e+01  1.0500182222514590e+01  1.0804364219021984e+01  1.0029844577166404e+01  1.0382885275615692e+01  1.0249944622939536e+01  1.0431360131082052e+01  1.0760782893500950e+01  9.4656968312378389e+00  9.3637419458668099e+00  9.4357806929847037e+00  9.3846585739874531e+00  9.4749716573358906e+00  9.4281638433897363e+00  9.4876772956826834e+00  9.4897034482057254e+00  9.3882680700537016e+00  9.9013295497066398e+00  1.0052652296242170e+01  9.9071940291151233e+00  1.0095822916619944e+01  9.6366785856513406e+00  9.8763929298385182e+00  9.6704653115409283e+00  9.7585905850329997e+00  1.0091630941378119e+01  1.0783173694885724e+01  1.0889589342525520e+01  1.0807825657209264e+01  1.0899001638752855e+01  1.0892144499986886e+01  1.0850307997637170e+01  1.0744921335155569e+01  9.9809475358098005e+00  9.4844710802076744e+00  9.4615049514599079e+00  9.7677052967476854e+00  1.0121782612604981e+01  1.0639094578148374e+01  1.0297053019573857e+01  9.7716039898480460e+00  9.6419085144016083e+00  9.6364769810334714e+00  9.8560878025962335e+00  9.9618239788678089e+00  9.9294676158581225e+00  9.7101963077260596e+00  9.8879772151138923e+00  1.0116386156232000e+01  9.5910496807080179e+00  1.0206295811761489e+01  1.0228962088649007e+01  9.7130449569249784e+00  9.5233683130994624e+00  1.0537572006252928e+01  1.0207446786969008e+01  1.0968656662614690e+01  9.6241953885267915e+00  9.3474187579447428e+00  1.0159741293732491e+01  1.1035530174638231e+01  1.0947553467299551e+01  9.7041654468042982e+00  9.9335467652539613e+00  9.5526835791157740e+00  9.7836224382997550e+00  9.6396607751211150e+00  9.9301437546367062e+00  9.6128833156959566e+00  1.0011047890412296e+01  9.3341620750001031e+00  9.4622594743620088e+00  9.3532585018696661e+00  9.2535650292667562e+00  9.0606892899960609e+00  9.3720062505715731e+00  9.4009497760503873e+00  9.5421149252663966e+00  1.0486101510360685e+01  1.0431366454790824e+01  1.0675988982217252e+01  1.0115321151397541e+01  1.0183683658597916e+01  9.9952290278028411e+00  1.0506686764326721e+01  1.0259627598426327e+01  1.0390056126131384e+01  9.7911976406830092e+00  1.0367336443654043e+01  9.9918214695367364e+00  9.5954461610361967e+00  1.0054775879806506e+01  1.0013662443334846e+01  1.0523115855273190e+01  9.0566104213676546e+00  9.0443759564133615e+00  8.9820362630281121e+00  9.1558165918402512e+00  9.4978432111306876e+00  9.1638981398405868e+00  9.3974827472228455e+00  8.9377147381476156e+00  9.2691265378273702e+00  9.2934509970425516e+00  9.4199593965803992e+00  9.4001057413958442e+00  9.0815914591381368e+00  9.2195310877829471e+00  9.5314617517235689e+00  9.4886802039496185e+00  1.1019078696414422e+01  1.0651411367138353e+01  1.0919744605774710e+01  1.0719198804679049e+01  1.1013020338719821e+01  1.1025750382269360e+01  1.0894801239414717e+01  1.0976989025800387e+01  9.9830521230985632e+00  9.8153143165504435e+00  9.6960379252014288e+00  1.0130769622720168e+01  9.7616794741766562e+00  1.0135435589313344e+01  1.0401929936260760e+01  1.0327655433480565e+01  1.1400383327190385e+01  1.1414152850316617e+01  1.1508119012369397e+01  1.1317427292957696e+01  1.1373413882193811e+01  1.1391702541978304e+01  1.1384410651044263e+01  1.1085810001896750e+01  1.1213014426463774e+01  1.0775206868223092e+01  1.1329769369362081e+01  1.0650424363002680e+01  1.0752915334529121e+01  1.0750195047045294e+01  1.0090466493793638e+01  1.0117766593694940e+01  9.7072508287130841e+00  1.0337162177078516e+01  9.9218567059199607e+00  9.8937766885582068e+00  9.7830404089054230e+00  1.0520574191819769e+01  9.9248369210239602e+00  1.0268024672483872e+01  1.0444570190253557e+01  1.0497065112781211e+01  1.0189459162226104e+01  1.0252566813986761e+01  9.9141621389203589e+00  9.7953989844022065e+00  9.6478547247792044e+00  9.5757296003024202e+00  9.3080675459614088e+00  9.7948193031496800e+00  9.9446805203862336e+00  9.1512005956453830e+00  9.1802182271731869e+00  9.1185415138071875e+00  9.5162316939197069e+00  9.5235491430212047e+00  9.3018703846690993e+00  9.4071630318615114e+00  8.9918226752590229e+00  9.0284376481440951e+00  8.8701745719709688e+00  9.0945370838942594e+00  9.3436779614938708e+00  9.3998463573174078e+00  8.9458605410516494e+00  1.0991626106246205e+01  1.1019456666752987e+01  1.1054228361252509e+01  1.1041660828872059e+01  1.0929962505633315e+01  1.0779833364836064e+01  1.0972101730577196e+01  9.7079665381549436e+00  9.1436037676006805e+00  9.4770157004598037e+00  9.3050061376737272e+00  1.0201440867487898e+01  9.7568047656190764e+00  1.0201223837334776e+01  1.0186480006752365e+01  1.0853056458237058e+01  1.0867078312548047e+01  1.0923147012921175e+01  1.0776042605592050e+01  1.0997522408469102e+01  1.0837457482084286e+01  1.0984566429751645e+01  1.0951479347032326e+01  9.8227493378972870e+00  9.8589961606209506e+00  9.8674594754365224e+00  9.8018752914798526e+00  9.5279735717036420e+00  9.6549527434207718e+00  9.7532927538954706e+00  9.9416410381607907e+00  9.4107169012160963e+00  8.9644225082379556e+00  9.2790669085217186e+00  9.4132894918294010e+00  1.0063122754279163e+01  9.7262440018636518e+00  9.8990647803553067e+00  9.8500038033497130e+00  1.1047545166070128e+01  1.1187552830971581e+01  1.1088635693554743e+01  1.1144509065936747e+01  1.1048426403796825e+01  1.0847196284056102e+01  1.0938335343834821e+01  1.0041704782870479e+01  9.8624632034531583e+00  9.5833095038760909e+00  1.0115586103668065e+01  9.9124932562261634e+00  1.0128831225771171e+01  9.7375458115819136e+00  9.7554300011293993e+00  9.3396168113882307e+00  9.4832976769555817e+00  9.6623376367042013e+00  1.0004231171437862e+01  9.9275059089160465e+00  9.7671287674708687e+00  1.1150005688164100e+01  1.1200554591852262e+01  1.0988887546710361e+01  1.1159289743667541e+01  1.0982018956342484e+01  1.1062251884839103e+01  1.0997075965478906e+01  1.0175507840328594e+01  1.0582584706938098e+01  1.0464385738756096e+01  1.0593558883204851e+01  1.0354678582220894e+01  9.6063149676995678e+00  9.7514366112038644e+00  9.3255383292194640e+00  1.0806981580491589e+01  1.0975534583508942e+01  1.0858462522630878e+01  1.0922362050005754e+01  1.0734001222837419e+01  1.0894839260360671e+01  1.0669740604705877e+01  1.0789848450925717e+01  9.7082506024282988e+00  9.8193991066306907e+00  9.8825206290673258e+00  9.7681383279108083e+00  1.0163660072128870e+01  1.0241367108147056e+01  9.7519075140369402e+00  9.6949784643590462e+00  9.0872071319708656e+00  9.1991072086106023e+00  8.9765436241181913e+00  9.0692912004169060e+00  9.2673148104693990e+00  9.4300317826744138e+00  8.8751148384233698e+00  9.0577627925741275e+00  9.0102499888265069e+00  9.0705545151646145e+00  8.9891936224280826e+00  9.2368414015992713e+00  9.5526593170048031e+00  8.9820973581147605e+00  1.0108689431876726e+01  1.0040638840741710e+01  1.0057365753295555e+01  1.0115931072758443e+01  1.0152658208095071e+01  9.8935774679435724e+00  1.0155147279317822e+01  1.0246041222171625e+01  1.0584926006752271e+01  9.8340797124522261e+00  9.7942048863206033e+00  1.0466476685332005e+01  9.4193869105775843e+00  9.4076977282905148e+00  9.3625633064014391e+00  9.4099431235376478e+00  9.4653473080749748e+00  9.4355244576841404e+00  1.0223343977857317e+01  1.0475839185149788e+01  9.8285859424552253e+00  1.0316513581248628e+01  9.8537555137296664e+00  9.8572059567310610e+00  9.7911197794262090e+00  8.8172764574692994e+00  8.5977169142192391e+00  8.9598512686468297e+00  8.7246586737170784e+00  9.6757361172699046e+00  9.0309568444076191e+00  9.5487751449205458e+00  1.0862577359637124e+01  1.0775465698007435e+01  1.0513497274209753e+01  1.0790609961033033e+01  1.0699898085552691e+01  1.0827758647189224e+01  1.0886577644924964e+01  9.9152542690152128e+00  1.0388249485047073e+01  9.6888733999510350e+00  1.0300552073925832e+01  1.0199467628895690e+01  1.0054751226433144e+01  1.0273049630459070e+01  1.0997431390249341e+01  1.1101116782241153e+01  1.1194646954320087e+01  1.0978103763282498e+01  1.0939246249090390e+01  1.0656309403029134e+01  1.0622735218226392e+01  9.7437819407934718e+00  9.3488068507432658e+00  1.0084633132766216e+01  9.2513297940628849e+00  1.0039992249766076e+01  1.0016515940307290e+01  9.5489259418322199e+00  1.1074426257461150e+01  1.0984395950039238e+01  1.1263296082814689e+01  1.0698579133408906e+01  1.1201995259452564e+01  1.1108066029246707e+01  1.0740187627332904e+01  9.3982773487092377e+00  1.0017792616584417e+01  9.7823410546947400e+00  9.6259938815404027e+00  9.3960712742068218e+00  9.2137056628978051e+00  9.2919517649370000e+00  1.1246896035997235e+01  1.1215591483241052e+01  1.1227492639122129e+01  1.1165667820319946e+01  1.1206230220460604e+01  1.1081003959702567e+01  9.2927677403378173e+00  9.7442483043698456e+00  9.6594524464399